717
Geometry Step: 74
Si  -12.265130   -6.838476   -4.093695
Si  -12.309420   -6.826349    1.352013
Si  -12.309596   -6.847351    6.847351
Si  -12.265130   -4.093695   -6.838476
Si  -13.666834   -2.757501   -5.488334
Si  -13.666834   -5.488334   -2.757501
Si  -12.310545   -1.381036   -4.109690
Si  -12.310545   -4.109690   -1.381036
Si  -13.667253   -2.731194   -0.017089
Si  -12.310260   -1.363356    1.363356
Si  -12.310795   -4.087384    4.087384
Si  -12.309420   -1.352013    6.826349
Si  -12.309420    1.352013   -6.826349
Si  -13.667253   -0.017089   -2.731194
Si  -12.310795    4.087384   -4.087384
Si  -12.310260    1.363356   -1.363356
Si  -13.667253    2.731194    0.017089
Si  -13.667253    0.017089    2.731194
Si  -12.310545    4.109690    1.381036
Si  -12.310545    1.381036    4.109690
Si  -13.666834    2.757501    5.488334
Si  -12.265130    4.093695    6.838476
Si  -12.309596    6.847351   -6.847351
Si  -12.309420    6.826349   -1.352013
Si  -13.666834    5.488334    2.757501
Si  -12.265130    6.838476    4.093695
Si   -6.838476  -12.265130   -4.093695
Si   -6.826349  -12.309420    1.352013
Si   -6.847351  -12.309596    6.847351
Si   -8.192592   -8.192592  -10.932959
Si   -8.192592  -10.932959   -8.192592
Si  -10.932959   -8.192592   -8.192592
Si   -6.834001   -6.834001   -9.554638
Si   -6.834001   -9.554638   -6.834001
Si   -9.554638   -6.834001   -6.834001
Si   -8.191124   -8.191124   -5.459703
Si   -8.195678  -10.907729   -2.720739
Si  -10.907729   -8.195678   -2.720739
Si   -9.557336   -9.557336   -4.099235
Si   -6.825734   -6.825734   -4.095691
Si   -6.828870   -9.548766   -1.359396
Si   -9.548766   -6.828870   -1.359396
Si   -8.195170   -8.195170    0.019413
Si   -8.189548  -10.948672    2.736281
Si  -10.948672   -8.189548    2.736281
Si   -9.562941   -9.562941    1.388051
Si   -6.828979   -6.828979    1.377414
Si   -6.824807   -9.577037    4.098976
Si   -9.577037   -6.824807    4.098976
Si   -8.193362   -8.193362    5.455669
Si   -9.555835   -9.555835    6.818716
Si   -6.826635   -6.826635    6.826635
Si   -6.818716   -9.555835    9.555835
Si   -9.555835   -6.818716    9.555835
Si   -6.847351   -6.847351   12.309596
Si   -6.838476   -4.093695  -12.265130
Si   -8.195678   -2.720739  -10.907729
Si   -8.191124   -5.459703   -8.191124
Si  -10.907729   -2.720739   -8.195678
Si   -9.557336   -4.099235   -9.557336
Si   -6.828870   -1.359396   -9.548766
Si   -6.825734   -4.095691   -6.825734
Si   -9.548766   -1.359396   -6.828870
Si  -10.916432   -5.471631   -5.471631
Si   -8.191278   -2.729861   -5.461269
Si   -8.191278   -5.461269   -2.729861
Si  -10.938423   -2.743839   -2.743839
Si   -9.558578   -4.102374   -4.102374
Si   -6.828778   -1.363243   -4.095678
Si   -6.828778   -4.095678   -1.363243
Si   -9.576559   -1.371034   -1.371034
Si  -10.933773   -5.466938   -0.009028
Si   -8.203228   -2.731015   -0.003077
Si   -8.205587   -5.461305    2.733605
Si  -10.934623   -2.728097    2.728097
Si   -9.570584   -4.097281    1.360696
Si   -6.837072   -1.365166    1.365166
Si   -6.835176   -4.097760    4.097760
Si   -9.570584   -1.360696    4.097281
Si  -10.960483   -5.467319    5.467319
Si   -8.205587   -2.733605    5.461305
Si   -8.193362   -5.455669    8.193362
Si  -10.948672   -2.736281    8.189548
Si   -9.577037   -4.098976    6.824807
Si   -6.828979   -1.377414    6.828979
Si   -6.824807   -4.098976    9.577037
Si   -9.562941   -1.388051    9.562941
Si   -8.189548   -2.736281   10.948672
Si   -6.826349   -1.352013   12.309420
Si   -6.826349    1.352013  -12.309420
Si   -8.189548    2.736281  -10.948672
Si   -8.195170    0.019413   -8.195170
Si  -10.948672    2.736281   -8.189548
Si   -9.562941    1.388051   -9.562941
Si   -6.824807    4.098976   -9.577037
Si   -6.828979    1.377414   -6.828979
Si   -9.577037    4.098976   -6.824807
Si  -10.933773   -0.009028   -5.466938
Si   -8.205587    2.733605   -5.461305
Si   -8.203228   -0.003077   -2.731015
Si  -10.934623    2.728097   -2.728097
Si   -9.570584    1.360696   -4.097281
Si   -6.835176    4.097760   -4.097760
Si   -6.837072    1.365166   -1.365166
Si   -9.570584    4.097281   -1.360696
Si  -10.938330    0.000000    0.000000
Si   -8.203228    2.731015    0.003077
Si   -8.203228    0.003077    2.731015
Si  -10.938423    2.743839    2.743839
Si   -9.576559    1.371034    1.371034
Si   -6.828778    4.095678    1.363243
Si   -6.828778    1.363243    4.095678
Si   -9.558578    4.102374    4.102374
Si  -10.933773    0.009028    5.466938
Si   -8.191278    2.729861    5.461269
Si   -8.195170   -0.019413    8.195170
Si  -10.907729    2.720739    8.195678
Si   -9.548766    1.359396    6.828870
Si   -6.825734    4.095691    6.825734
Si   -6.828870    1.359396    9.548766
Si   -9.557336    4.099235    9.557336
Si   -8.195678    2.720739   10.907729
Si   -6.838476    4.093695   12.265130
Si   -6.847351    6.847351  -12.309596
Si   -8.193362    5.455669   -8.193362
Si   -9.555835    6.818716   -9.555835
Si   -6.818716    9.555835   -9.555835
Si   -6.826635    6.826635   -6.826635
Si   -9.555835    9.555835   -6.818716
Si  -10.960483    5.467319   -5.467319
Si   -8.193362    8.193362   -5.455669
Si   -8.205587    5.461305   -2.733605
Si  -10.948672    8.189548   -2.736281
Si   -9.577037    6.824807   -4.098976
Si   -6.824807    9.577037   -4.098976
Si   -6.828979    6.828979   -1.377414
Si   -9.562941    9.562941   -1.388051
Si  -10.933773    5.466938    0.009028
Si   -8.195170    8.195170   -0.019413
Si   -8.191278    5.461269    2.729861
Si  -10.907729    8.195678    2.720739
Si   -9.548766    6.828870    1.359396
Si   -6.828870    9.548766    1.359396
Si   -6.825734    6.825734    4.095691
Si   -9.557336    9.557336    4.099235
Si  -10.916432    5.471631    5.471631
Si   -8.191124    8.191124    5.459703
Si   -8.191124    5.459703    8.191124
Si  -10.932959    8.192592    8.192592
Si   -9.554638    6.834001    6.834001
Si   -6.834001    9.554638    6.834001
Si   -6.834001    6.834001    9.554638
Si   -8.192592    8.192592   10.932959
Si   -6.847351   12.309596   -6.847351
Si   -8.189548   10.948672   -2.736281
Si   -6.826349   12.309420   -1.352013
Si   -8.195678   10.907729    2.720739
Si   -6.838476   12.265130    4.093695
Si   -8.192592   10.932959    8.192592
Si   -4.093695  -12.265130   -6.838476
Si   -2.757501  -13.666834   -5.488334
Si   -5.488334  -13.666834   -2.757501
Si   -1.381036  -12.310545   -4.109690
Si   -4.109690  -12.310545   -1.381036
Si   -2.731194  -13.667253   -0.017089
Si   -1.363356  -12.310260    1.363356
Si   -4.087384  -12.310795    4.087384
Si   -1.352013  -12.309420    6.826349
Si   -4.093695   -6.838476  -12.265130
Si   -2.720739   -8.195678  -10.907729
Si   -2.720739  -10.907729   -8.195678
Si   -5.459703   -8.191124   -8.191124
Si   -4.099235   -9.557336   -9.557336
Si   -1.359396   -6.828870   -9.548766
Si   -1.359396   -9.548766   -6.828870
Si   -4.095691   -6.825734   -6.825734
Si   -5.471631  -10.916432   -5.471631
Si   -2.729861   -8.191278   -5.461269
Si   -2.743839  -10.938423   -2.743839
Si   -5.461269   -8.191278   -2.729861
Si   -4.102374   -9.558578   -4.102374
Si   -1.363243   -6.828778   -4.095678
Si   -1.371034   -9.576559   -1.371034
Si   -4.095678   -6.828778   -1.363243
Si   -5.466938  -10.933773   -0.009028
Si   -2.731015   -8.203228   -0.003077
Si   -2.728097  -10.934623    2.728097
Si   -5.461305   -8.205587    2.733605
Si   -4.097281   -9.570584    1.360696
Si   -1.365166   -6.837072    1.365166
Si   -1.360696   -9.570584    4.097281
Si   -4.097760   -6.835176    4.097760
Si   -5.467319  -10.960483    5.467319
Si   -2.733605   -8.205587    5.461305
Si   -2.736281  -10.948672    8.189548
Si   -5.455669   -8.193362    8.193362
Si   -4.098976   -9.577037    6.824807
Si   -1.377414   -6.828979    6.828979
Si   -1.388051   -9.562941    9.562941
Si   -4.098976   -6.824807    9.577037
Si   -2.736281   -8.189548   10.948672
Si   -1.352013   -6.826349   12.309420
Si   -2.757501   -5.488334  -13.666834
Si   -5.488334   -2.757501  -13.666834
Si   -1.381036   -4.109690  -12.310545
Si   -4.109690   -1.381036  -12.310545
Si   -5.471631   -5.471631  -10.916432
Si   -2.743839   -2.743839  -10.938423
Si   -2.729861   -5.461269   -8.191278
Si   -5.461269   -2.729861   -8.191278
Si   -4.102374   -4.102374   -9.558578
Si   -1.371034   -1.371034   -9.576559
Si   -1.363243   -4.095678   -6.828778
Si   -4.095678   -1.363243   -6.828778
Si   -5.460414   -5.460414   -5.460414
Si   -2.729685   -2.729685   -5.462725
Si   -2.729685   -5.462725   -2.729685
Si   -5.462725   -2.729685   -2.729685
Si   -4.095054   -4.095054   -4.095054
Si   -1.364303   -1.364303   -4.097823
Si   -1.364303   -4.097823   -1.364303
Si   -4.097823   -1.364303   -1.364303
Si   -5.465060   -5.465060    0.004292
Si   -2.732313   -2.732313    0.001076
Si   -2.731611   -5.468207    2.731611
Si   -5.468207   -2.731611    2.731611
Si   -4.098486   -4.098486    1.367999
Si   -1.366179   -1.366179    1.366179
Si   -1.367999   -4.098486    4.098486
Si   -4.098486   -1.367999    4.098486
Si   -5.461945   -5.461945    5.461945
Si   -2.731611   -2.731611    5.468207
Si   -2.733605   -5.461305    8.205587
Si   -5.461305   -2.733605    8.205587
Si   -4.097760   -4.097760    6.835176
Si   -1.365166   -1.365166    6.837072
Si   -1.360696   -4.097281    9.570584
Si   -4.097281   -1.360696    9.570584
Si   -5.467319   -5.467319   10.960483
Si   -2.728097   -2.728097   10.934623
Si   -4.087384   -4.087384   12.310795
Si   -1.363356   -1.363356   12.310260
Si   -2.731194   -0.017089  -13.667253
Si   -1.363356    1.363356  -12.310260
Si   -4.087384    4.087384  -12.310795
Si   -5.466938   -0.009028  -10.933773
Si   -2.728097    2.728097  -10.934623
Si   -2.731015   -0.003077   -8.203228
Si   -5.461305    2.733605   -8.205587
Si   -4.097281    1.360696   -9.570584
Si   -1.360696    4.097281   -9.570584
Si   -1.365166    1.365166   -6.837072
Si   -4.097760    4.097760   -6.835176
Si   -5.465060    0.004292   -5.465060
Si   -2.731611    2.731611   -5.468207
Si   -2.732313    0.001076   -2.732313
Si   -5.468207    2.731611   -2.731611
Si   -4.098486    1.367999   -4.098486
Si   -1.367999    4.098486   -4.098486
Si   -1.366179    1.366179   -1.366179
Si   -4.098486    4.098486   -1.367999
Si   -5.467929    0.000000    0.000000
Si   -2.732313    2.732313   -0.001076
Si   -2.732313   -0.001076    2.732313
Si   -5.462725    2.729685    2.729685
Si   -4.097823    1.364303    1.364303
Si   -1.364303    4.097823    1.364303
Si   -1.364303    1.364303    4.097823
Si   -4.095054    4.095054    4.095054
Si   -5.465060   -0.004292    5.465060
Si   -2.729685    2.729685    5.462725
Si   -2.731015    0.003077    8.203228
Si   -5.461269    2.729861    8.191278
Si   -4.095678    1.363243    6.828778
Si   -1.363243    4.095678    6.828778
Si   -1.371034    1.371034    9.576559
Si   -4.102374    4.102374    9.558578
Si   -5.466938    0.009028   10.933773
Si   -2.743839    2.743839   10.938423
Si   -2.731194    0.017089   13.667253
Si   -5.488334    2.757501   13.666834
Si   -4.109690    1.381036   12.310545
Si   -1.381036    4.109690   12.310545
Si   -1.352013    6.826349  -12.309420
Si   -5.467319    5.467319  -10.960483
Si   -2.736281    8.189548  -10.948672
Si   -2.733605    5.461305   -8.205587
Si   -5.455669    8.193362   -8.193362
Si   -4.098976    6.824807   -9.577037
Si   -1.388051    9.562941   -9.562941
Si   -1.377414    6.828979   -6.828979
Si   -4.098976    9.577037   -6.824807
Si   -5.461945    5.461945   -5.461945
Si   -2.733605    8.205587   -5.461305
Si   -2.731611    5.468207   -2.731611
Si   -5.461305    8.205587   -2.733605
Si   -4.097760    6.835176   -4.097760
Si   -1.360696    9.570584   -4.097281
Si   -1.365166    6.837072   -1.365166
Si   -4.097281    9.570584   -1.360696
Si   -5.465060    5.465060   -0.004292
Si   -2.731015    8.203228    0.003077
Si   -2.729685    5.462725    2.729685
Si   -5.461269    8.191278    2.729861
Si   -4.095678    6.828778    1.363243
Si   -1.371034    9.576559    1.371034
Si   -1.363243    6.828778    4.095678
Si   -4.102374    9.558578    4.102374
Si   -5.460414    5.460414    5.460414
Si   -2.729861    8.191278    5.461269
Si   -2.729861    5.461269    8.191278
Si   -5.459703    8.191124    8.191124
Si   -4.095691    6.825734    6.825734
Si   -1.359396    9.548766    6.828870
Si   -1.359396    6.828870    9.548766
Si   -4.099235    9.557336    9.557336
Si   -5.471631    5.471631   10.916432
Si   -2.720739    8.195678   10.907729
Si   -2.757501    5.488334   13.666834
Si   -4.093695    6.838476   12.265130
Si   -2.736281   10.948672   -8.189548
Si   -1.352013   12.309420   -6.826349
Si   -5.467319   10.960483   -5.467319
Si   -2.728097   10.934623   -2.728097
Si   -4.087384   12.310795   -4.087384
Si   -1.363356   12.310260   -1.363356
Si   -5.466938   10.933773    0.009028
Si   -2.731194   13.667253    0.017089
Si   -2.743839   10.938423    2.743839
Si   -5.488334   13.666834    2.757501
Si   -4.109690   12.310545    1.381036
Si   -1.381036   12.310545    4.109690
Si   -5.471631   10.916432    5.471631
Si   -2.757501   13.666834    5.488334
Si   -2.720739   10.907729    8.195678
Si   -4.093695   12.265130    6.838476
Si    1.352013  -12.309420   -6.826349
Si   -0.017089  -13.667253   -2.731194
Si    4.087384  -12.310795   -4.087384
Si    1.363356  -12.310260   -1.363356
Si    2.731194  -13.667253    0.017089
Si    0.017089  -13.667253    2.731194
Si    4.109690  -12.310545    1.381036
Si    1.381036  -12.310545    4.109690
Si    2.757501  -13.666834    5.488334
Si    4.093695  -12.265130    6.838476
Si    1.352013   -6.826349  -12.309420
Si    2.736281   -8.189548  -10.948672
Si    2.736281  -10.948672   -8.189548
Si    0.019413   -8.195170   -8.195170
Si    1.388051   -9.562941   -9.562941
Si    4.098976   -6.824807   -9.577037
Si    4.098976   -9.577037   -6.824807
Si    1.377414   -6.828979   -6.828979
Si   -0.009028  -10.933773   -5.466938
Si    2.733605   -8.205587   -5.461305
Si    2.728097  -10.934623   -2.728097
Si   -0.003077   -8.203228   -2.731015
Si    1.360696   -9.570584   -4.097281
Si    4.097760   -6.835176   -4.097760
Si    4.097281   -9.570584   -1.360696
Si    1.365166   -6.837072   -1.365166
Si   -0.000000  -10.938330    0.000000
Si    2.731015   -8.203228    0.003077
Si    2.743839  -10.938423    2.743839
Si    0.003077   -8.203228    2.731015
Si    1.371034   -9.576559    1.371034
Si    4.095678   -6.828778    1.363243
Si    4.102374   -9.558578    4.102374
Si    1.363243   -6.828778    4.095678
Si    0.009028  -10.933773    5.466938
Si    2.729861   -8.191278    5.461269
Si    2.720739  -10.907729    8.195678
Si   -0.019413   -8.195170    8.195170
Si    1.359396   -9.548766    6.828870
Si    4.095691   -6.825734    6.825734
Si    4.099235   -9.557336    9.557336
Si    1.359396   -6.828870    9.548766
Si    2.720739   -8.195678   10.907729
Si    4.093695   -6.838476   12.265130
Si   -0.017089   -2.731194  -13.667253
Si    4.087384   -4.087384  -12.310795
Si    1.363356   -1.363356  -12.310260
Si   -0.009028   -5.466938  -10.933773
Si    2.728097   -2.728097  -10.934623
Si    2.733605   -5.461305   -8.205587
Si   -0.003077   -2.731015   -8.203228
Si    1.360696   -4.097281   -9.570584
Si    4.097281   -1.360696   -9.570584
Si    4.097760   -4.097760   -6.835176
Si    1.365166   -1.365166   -6.837072
Si    0.004292   -5.465060   -5.465060
Si    2.731611   -2.731611   -5.468207
Si    2.731611   -5.468207   -2.731611
Si    0.001076   -2.732313   -2.732313
Si    1.367999   -4.098486   -4.098486
Si    4.098486   -1.367999   -4.098486
Si    4.098486   -4.098486   -1.367999
Si    1.366179   -1.366179   -1.366179
Si   -0.000000   -5.467929    0.000000
Si    2.732313   -2.732313   -0.001076
Si    2.729685   -5.462725    2.729685
Si   -0.001076   -2.732313    2.732313
Si    1.364303   -4.097823    1.364303
Si    4.097823   -1.364303    1.364303
Si    4.095054   -4.095054    4.095054
Si    1.364303   -1.364303    4.097823
Si   -0.004292   -5.465060    5.465060
Si    2.729685   -2.729685    5.462725
Si    2.729861   -5.461269    8.191278
Si    0.003077   -2.731015    8.203228
Si    1.363243   -4.095678    6.828778
Si    4.095678   -1.363243    6.828778
Si    4.102374   -4.102374    9.558578
Si    1.371034   -1.371034    9.576559
Si    0.009028   -5.466938   10.933773
Si    2.743839   -2.743839   10.938423
Si    2.757501   -5.488334   13.666834
Si    0.017089   -2.731194   13.667253
Si    1.381036   -4.109690   12.310545
Si    4.109690   -1.381036   12.310545
Si    2.731194    0.017089  -13.667253
Si    0.017089    2.731194  -13.667253
Si    4.109690    1.381036  -12.310545
Si    1.381036    4.109690  -12.310545
Si   -0.000000   -0.000000  -10.938330
Si    2.743839    2.743839  -10.938423
Si    2.731015    0.003077   -8.203228
Si    0.003077    2.731015   -8.203228
Si    1.371034    1.371034   -9.576559
Si    4.102374    4.102374   -9.558578
Si    4.095678    1.363243   -6.828778
Si    1.363243    4.095678   -6.828778
Si   -0.000000   -0.000000   -5.467929
Si    2.729685    2.729685   -5.462725
Si    2.732313   -0.001076   -2.732313
Si   -0.001076    2.732313   -2.732313
Si    1.364303    1.364303   -4.097823
Si    4.095054    4.095054   -4.095054
Si    4.097823    1.364303   -1.364303
Si    1.364303    4.097823   -1.364303
Si    0.000000    0.000000    0.000000
Si    2.732313    2.732313    0.001076
Si    2.732313    0.001076    2.732313
Si    0.001076    2.732313    2.732313
Si    1.366179    1.366179    1.366179
Si    4.098486    4.098486    1.367999
Si    4.098486    1.367999    4.098486
Si    1.367999    4.098486    4.098486
Si    0.000000    0.000000    5.467929
Si    2.731611    2.731611    5.468207
Si    2.731015   -0.003077    8.203228
Si   -0.003077    2.731015    8.203228
Si    1.365166    1.365166    6.837072
Si    4.097760    4.097760    6.835176
Si    4.097281    1.360696    9.570584
Si    1.360696    4.097281    9.570584
Si    0.000000    0.000000   10.938330
Si    2.728097    2.728097   10.934623
Si    2.731194   -0.017089   13.667253
Si   -0.017089    2.731194   13.667253
Si    1.363356    1.363356   12.310260
Si    4.087384    4.087384   12.310795
Si    2.757501    5.488334  -13.666834
Si    4.093695    6.838476  -12.265130
Si    0.009028    5.466938  -10.933773
Si    2.720739    8.195678  -10.907729
Si    2.729861    5.461269   -8.191278
Si   -0.019413    8.195170   -8.195170
Si    1.359396    6.828870   -9.548766
Si    4.099235    9.557336   -9.557336
Si    4.095691    6.825734   -6.825734
Si    1.359396    9.548766   -6.828870
Si   -0.004292    5.465060   -5.465060
Si    2.729861    8.191278   -5.461269
Si    2.729685    5.462725   -2.729685
Si    0.003077    8.203228   -2.731015
Si    1.363243    6.828778   -4.095678
Si    4.102374    9.558578   -4.102374
Si    4.095678    6.828778   -1.363243
Si    1.371034    9.576559   -1.371034
Si    0.000000    5.467929    0.000000
Si    2.731015    8.203228   -0.003077
Si    2.731611    5.468207    2.731611
Si   -0.003077    8.203228    2.731015
Si    1.365166    6.837072    1.365166
Si    4.097281    9.570584    1.360696
Si    4.097760    6.835176    4.097760
Si    1.360696    9.570584    4.097281
Si    0.004292    5.465060    5.465060
Si    2.733605    8.205587    5.461305
Si    2.733605    5.461305    8.205587
Si    0.019413    8.195170    8.195170
Si    1.377414    6.828979    6.828979
Si    4.098976    9.577037    6.824807
Si    4.098976    6.824807    9.577037
Si    1.388051    9.562941    9.562941
Si   -0.009028    5.466938   10.933773
Si    2.736281    8.189548   10.948672
Si    1.352013    6.826349   12.309420
Si    2.720739   10.907729   -8.195678
Si    4.093695   12.265130   -6.838476
Si    0.009028   10.933773   -5.466938
Si    2.757501   13.666834   -5.488334
Si    2.743839   10.938423   -2.743839
Si    0.017089   13.667253   -2.731194
Si    1.381036   12.310545   -4.109690
Si    4.109690   12.310545   -1.381036
Si    0.000000   10.938330    0.000000
Si    2.731194   13.667253   -0.017089
Si    2.728097   10.934623    2.728097
Si   -0.017089   13.667253    2.731194
Si    1.363356   12.310260    1.363356
Si    4.087384   12.310795    4.087384
Si   -0.009028   10.933773    5.466938
Si    2.736281   10.948672    8.189548
Si    1.352013   12.309420    6.826349
Si    6.847351  -12.309596   -6.847351
Si    6.826349  -12.309420   -1.352013
Si    5.488334  -13.666834    2.757501
Si    6.838476  -12.265130    4.093695
Si    6.847351   -6.847351  -12.309596
Si    5.455669   -8.193362   -8.193362
Si    6.818716   -9.555835   -9.555835
Si    9.555835   -6.818716   -9.555835
Si    9.555835   -9.555835   -6.818716
Si    6.826635   -6.826635   -6.826635
Si    5.467319  -10.960483   -5.467319
Si    8.193362   -8.193362   -5.455669
Si    8.189548  -10.948672   -2.736281
Si    5.461305   -8.205587   -2.733605
Si    6.824807   -9.577037   -4.098976
Si    9.577037   -6.824807   -4.098976
Si    9.562941   -9.562941   -1.388051
Si    6.828979   -6.828979   -1.377414
Si    5.466938  -10.933773    0.009028
Si    8.195170   -8.195170   -0.019413
Si    8.195678  -10.907729    2.720739
Si    5.461269   -8.191278    2.729861
Si    6.828870   -9.548766    1.359396
Si    9.548766   -6.828870    1.359396
Si    9.557336   -9.557336    4.099235
Si    6.825734   -6.825734    4.095691
Si    5.471631  -10.916432    5.471631
Si    8.191124   -8.191124    5.459703
Si    8.192592  -10.932959    8.192592
Si    5.459703   -8.191124    8.191124
Si    6.834001   -9.554638    6.834001
Si    9.554638   -6.834001    6.834001
Si    6.834001   -6.834001    9.554638
Si    8.192592   -8.192592   10.932959
Si    6.826349   -1.352013  -12.309420
Si    5.467319   -5.467319  -10.960483
Si    8.189548   -2.736281  -10.948672
Si    8.193362   -5.455669   -8.193362
Si    5.461305   -2.733605   -8.205587
Si    6.824807   -4.098976   -9.577037
Si    9.562941   -1.388051   -9.562941
Si    9.577037   -4.098976   -6.824807
Si    6.828979   -1.377414   -6.828979
Si    5.461945   -5.461945   -5.461945
Si    8.205587   -2.733605   -5.461305
Si    8.205587   -5.461305   -2.733605
Si    5.468207   -2.731611   -2.731611
Si    6.835176   -4.097760   -4.097760
Si    9.570584   -1.360696   -4.097281
Si    9.570584   -4.097281   -1.360696
Si    6.837072   -1.365166   -1.365166
Si    5.465060   -5.465060   -0.004292
Si    8.203228   -2.731015    0.003077
Si    8.191278   -5.461269    2.729861
Si    5.462725   -2.729685    2.729685
Si    6.828778   -4.095678    1.363243
Si    9.576559   -1.371034    1.371034
Si    9.558578   -4.102374    4.102374
Si    6.828778   -1.363243    4.095678
Si    5.460414   -5.460414    5.460414
Si    8.191278   -2.729861    5.461269
Si    8.191124   -5.459703    8.191124
Si    5.461269   -2.729861    8.191278
Si    6.825734   -4.095691    6.825734
Si    9.548766   -1.359396    6.828870
Si    9.557336   -4.099235    9.557336
Si    6.828870   -1.359396    9.548766
Si    5.471631   -5.471631   10.916432
Si    8.195678   -2.720739   10.907729
Si    5.488334   -2.757501   13.666834
Si    6.838476   -4.093695   12.265130
Si    5.488334    2.757501  -13.666834
Si    6.838476    4.093695  -12.265130
Si    5.466938    0.009028  -10.933773
Si    8.195678    2.720739  -10.907729
Si    8.195170   -0.019413   -8.195170
Si    5.461269    2.729861   -8.191278
Si    6.828870    1.359396   -9.548766
Si    9.557336    4.099235   -9.557336
Si    9.548766    1.359396   -6.828870
Si    6.825734    4.095691   -6.825734
Si    5.465060   -0.004292   -5.465060
Si    8.191278    2.729861   -5.461269
Si    8.203228    0.003077   -2.731015
Si    5.462725    2.729685   -2.729685
Si    6.828778    1.363243   -4.095678
Si    9.558578    4.102374   -4.102374
Si    9.576559    1.371034   -1.371034
Si    6.828778    4.095678   -1.363243
Si    5.467929    0.000000    0.000000
Si    8.203228    2.731015   -0.003077
Si    8.203228   -0.003077    2.731015
Si    5.468207    2.731611    2.731611
Si    6.837072    1.365166    1.365166
Si    9.570584    4.097281    1.360696
Si    9.570584    1.360696    4.097281
Si    6.835176    4.097760    4.097760
Si    5.465060    0.004292    5.465060
Si    8.205587    2.733605    5.461305
Si    8.195170    0.019413    8.195170
Si    5.461305    2.733605    8.205587
Si    6.828979    1.377414    6.828979
Si    9.577037    4.098976    6.824807
Si    9.562941    1.388051    9.562941
Si    6.824807    4.098976    9.577037
Si    5.466938   -0.009028   10.933773
Si    8.189548    2.736281   10.948672
Si    6.826349    1.352013   12.309420
Si    5.471631    5.471631  -10.916432
Si    8.192592    8.192592  -10.932959
Si    8.191124    5.459703   -8.191124
Si    5.459703    8.191124   -8.191124
Si    6.834001    6.834001   -9.554638
Si    9.554638    6.834001   -6.834001
Si    6.834001    9.554638   -6.834001
Si    5.460414    5.460414   -5.460414
Si    8.191124    8.191124   -5.459703
Si    8.191278    5.461269   -2.729861
Si    5.461269    8.191278   -2.729861
Si    6.825734    6.825734   -4.095691
Si    9.557336    9.557336   -4.099235
Si    9.548766    6.828870   -1.359396
Si    6.828870    9.548766   -1.359396
Si    5.465060    5.465060    0.004292
Si    8.195170    8.195170    0.019413
Si    8.205587    5.461305    2.733605
Si    5.461305    8.205587    2.733605
Si    6.828979    6.828979    1.377414
Si    9.562941    9.562941    1.388051
Si    9.577037    6.824807    4.098976
Si    6.824807    9.577037    4.098976
Si    5.461945    5.461945    5.461945
Si    8.193362    8.193362    5.455669
Si    8.193362    5.455669    8.193362
Si    5.455669    8.193362    8.193362
Si    6.826635    6.826635    6.826635
Si    9.555835    9.555835    6.818716
Si    9.555835    6.818716    9.555835
Si    6.818716    9.555835    9.555835
Si    5.467319    5.467319   10.960483
Si    6.847351    6.847351   12.309596
Si    8.192592   10.932959   -8.192592
Si    5.471631   10.916432   -5.471631
Si    8.195678   10.907729   -2.720739
Si    5.488334   13.666834   -2.757501
Si    6.838476   12.265130   -4.093695
Si    5.466938   10.933773   -0.009028
Si    8.189548   10.948672    2.736281
Si    6.826349   12.309420    1.352013
Si    5.467319   10.960483    5.467319
Si    6.847351   12.309596    6.847351
Si   12.309596   -6.847351   -6.847351
Si   10.948672   -8.189548   -2.736281
Si   12.309420   -6.826349   -1.352013
Si   10.907729   -8.195678    2.720739
Si   12.265130   -6.838476    4.093695
Si   10.932959   -8.192592    8.192592
Si   10.948672   -2.736281   -8.189548
Si   12.309420   -1.352013   -6.826349
Si   10.960483   -5.467319   -5.467319
Si   10.934623   -2.728097   -2.728097
Si   12.310795   -4.087384   -4.087384
Si   12.310260   -1.363356   -1.363356
Si   10.933773   -5.466938    0.009028
Si   13.667253   -2.731194    0.017089
Si   13.666834   -5.488334    2.757501
Si   10.938423   -2.743839    2.743839
Si   12.310545   -4.109690    1.381036
Si   12.310545   -1.381036    4.109690
Si   10.916432   -5.471631    5.471631
Si   13.666834   -2.757501    5.488334
Si   10.907729   -2.720739    8.195678
Si   12.265130   -4.093695    6.838476
Si   10.907729    2.720739   -8.195678
Si   12.265130    4.093695   -6.838476
Si   10.933773    0.009028   -5.466938
Si   13.666834    2.757501   -5.488334
Si   13.667253    0.017089   -2.731194
Si   10.938423    2.743839   -2.743839
Si   12.310545    1.381036   -4.109690
Si   12.310545    4.109690   -1.381036
Si   10.938330    0.000000    0.000000
Si   13.667253    2.731194   -0.017089
Si   13.667253   -0.017089    2.731194
Si   10.934623    2.728097    2.728097
Si   12.310260    1.363356    1.363356
Si   12.310795    4.087384    4.087384
Si   10.933773   -0.009028    5.466938
Si   10.948672    2.736281    8.189548
Si   12.309420    1.352013    6.826349
Si   10.932959    8.192592   -8.192592
Si   10.916432    5.471631   -5.471631
Si   13.666834    5.488334   -2.757501
Si   10.907729    8.195678   -2.720739
Si   12.265130    6.838476   -4.093695
Si   10.933773    5.466938   -0.009028
Si   10.948672    8.189548    2.736281
Si   12.309420    6.826349    1.352013
Si   10.960483    5.467319    5.467319
Si   12.309596    6.847351    6.847351
