59
Geometry Step: 57
Si   -2.739246   -2.739246   -5.484326
Si   -2.739246   -5.484326   -2.739246
Si   -5.484326   -2.739246   -2.739246
Si   -1.370683   -1.370683   -4.114986
Si   -1.370683   -4.114986   -1.370683
Si   -4.114986   -1.370683   -1.370683
Si   -2.736599   -2.736599   -0.007346
Si   -4.103334   -4.103334    1.355352
Si   -1.367604   -1.367604    1.367604
Si   -1.355352   -4.103334    4.103334
Si   -4.103334   -1.355352    4.103334
Si   -2.736599   -0.007346   -2.736599
Si   -4.103334    1.355352   -4.103334
Si   -1.355352    4.103334   -4.103334
Si   -1.367604    1.367604   -1.367604
Si   -4.103334    4.103334   -1.355352
Si   -5.470502    0.000000    0.000000
Si   -2.736599    2.736599    0.007346
Si   -2.736599    0.007346    2.736599
Si   -5.484326    2.739246    2.739246
Si   -4.114986    1.370683    1.370683
Si   -1.370683    4.114986    1.370683
Si   -1.370683    1.370683    4.114986
Si   -2.739246    2.739246    5.484326
Si   -2.739246    5.484326    2.739246
Si   -0.007346   -2.736599   -2.736599
Si    1.355352   -4.103334   -4.103334
Si    4.103334   -1.355352   -4.103334
Si    4.103334   -4.103334   -1.355352
Si    1.367604   -1.367604   -1.367604
Si   -0.000000   -5.470502    0.000000
Si    2.736599   -2.736599    0.007346
Si    2.739246   -5.484326    2.739246
Si    0.007346   -2.736599    2.736599
Si    1.370683   -4.114986    1.370683
Si    4.114986   -1.370683    1.370683
Si    1.370683   -1.370683    4.114986
Si    2.739246   -2.739246    5.484326
Si   -0.000000   -0.000000   -5.470502
Si    2.739246    2.739246   -5.484326
Si    2.736599    0.007346   -2.736599
Si    0.007346    2.736599   -2.736599
Si    1.370683    1.370683   -4.114986
Si    4.114986    1.370683   -1.370683
Si    1.370683    4.114986   -1.370683
Si    0.000000    0.000000    0.000000
Si    2.736599    2.736599   -0.007346
Si    2.736599   -0.007346    2.736599
Si   -0.007346    2.736599    2.736599
Si    1.367604    1.367604    1.367604
Si    4.103334    4.103334    1.355352
Si    4.103334    1.355352    4.103334
Si    1.355352    4.103334    4.103334
Si    0.000000    0.000000    5.470502
Si    2.739246    5.484326   -2.739246
Si    0.000000    5.470502    0.000000
Si    5.484326   -2.739246    2.739246
Si    5.484326    2.739246   -2.739246
Si    5.470502    0.000000    0.000000
