729
Geometry Step: 49
Si  -12.273417   -1.336197   -4.085436
Si  -12.273417   -4.085436   -1.336197
Si  -13.624438   -2.837317    0.102742
Si  -12.304408   -1.378025    1.378025
Si  -12.250038   -4.094138    4.094138
Si  -13.624438    0.102742   -2.837317
Si  -12.250038    4.094138   -4.094138
Si  -12.304408    1.378025   -1.378025
Si  -13.624438    2.837317   -0.102742
Si  -13.624438   -0.102742    2.837317
Si  -12.273417    4.085436    1.336197
Si  -12.273417    1.336197    4.085436
Si   -6.804143   -6.804143   -4.077837
Si   -6.809476   -9.531082   -1.350840
Si   -9.531082   -6.809476   -1.350840
Si   -8.169798   -8.169798   -0.017432
Si   -6.824229   -6.824229    1.364861
Si   -6.805832   -9.536909    4.113714
Si   -9.536909   -6.805832    4.113714
Si   -8.171786   -8.171786    5.441295
Si   -6.826902   -6.826902    6.826902
Si   -6.809476   -1.350840   -9.531082
Si   -6.804143   -4.077837   -6.804143
Si   -9.531082   -1.350840   -6.809476
Si   -8.191378   -2.732011   -5.457575
Si   -8.191378   -5.457575   -2.732011
Si  -10.942012   -2.723910   -2.723910
Si   -9.546449   -4.069936   -4.069936
Si   -6.827939   -1.365431   -4.093653
Si   -6.827939   -4.093653   -1.365431
Si   -9.571968   -1.361328   -1.361328
Si  -10.891765   -5.445757   -0.022176
Si   -8.193774   -2.725036    0.000014
Si   -8.188789   -5.459692    2.731235
Si  -10.915552   -2.730421    2.730421
Si   -9.552628   -4.094706    1.363939
Si   -6.825601   -1.363104    1.363104
Si   -6.822368   -4.091915    4.091915
Si   -9.552628   -1.363939    4.094706
Si  -10.902077   -5.441801    5.441801
Si   -8.188789   -2.731235    5.459692
Si   -8.171786   -5.441295    8.171786
Si   -9.536909   -4.113714    6.805832
Si   -6.824229   -1.364861    6.824229
Si   -6.805832   -4.113714    9.536909
Si   -8.169798   -0.017432   -8.169798
Si   -6.805832    4.113714   -9.536909
Si   -6.824229    1.364861   -6.824229
Si   -9.536909    4.113714   -6.805832
Si  -10.891765   -0.022176   -5.445757
Si   -8.188789    2.731235   -5.459692
Si   -8.193774    0.000014   -2.725036
Si  -10.915552    2.730421   -2.730421
Si   -9.552628    1.363939   -4.094706
Si   -6.822368    4.091915   -4.091915
Si   -6.825601    1.363104   -1.363104
Si   -9.552628    4.094706   -1.363939
Si  -10.953993    0.000000    0.000000
Si   -8.193774    2.725036   -0.000014
Si   -8.193774   -0.000014    2.725036
Si  -10.942012    2.723910    2.723910
Si   -9.571968    1.361328    1.361328
Si   -6.827939    4.093653    1.365431
Si   -6.827939    1.365431    4.093653
Si   -9.546449    4.069936    4.069936
Si  -10.891765    0.022176    5.445757
Si   -8.191378    2.732011    5.457575
Si   -8.169798    0.017432    8.169798
Si   -9.531082    1.350840    6.809476
Si   -6.804143    4.077837    6.804143
Si   -6.809476    1.350840    9.531082
Si   -8.171786    5.441295   -8.171786
Si   -6.826902    6.826902   -6.826902
Si  -10.902077    5.441801   -5.441801
Si   -8.171786    8.171786   -5.441295
Si   -8.188789    5.459692   -2.731235
Si   -9.536909    6.805832   -4.113714
Si   -6.805832    9.536909   -4.113714
Si   -6.824229    6.824229   -1.364861
Si  -10.891765    5.445757    0.022176
Si   -8.169798    8.169798    0.017432
Si   -8.191378    5.457575    2.732011
Si   -9.531082    6.809476    1.350840
Si   -6.809476    9.531082    1.350840
Si   -6.804143    6.804143    4.077837
Si   -1.336197  -12.273417   -4.085436
Si   -4.085436  -12.273417   -1.336197
Si   -2.837317  -13.624438    0.102742
Si   -1.378025  -12.304408    1.378025
Si   -4.094138  -12.250038    4.094138
Si   -1.350840   -6.809476   -9.531082
Si   -1.350840   -9.531082   -6.809476
Si   -4.077837   -6.804143   -6.804143
Si   -2.732011   -8.191378   -5.457575
Si   -2.723910  -10.942012   -2.723910
Si   -5.457575   -8.191378   -2.732011
Si   -4.069936   -9.546449   -4.069936
Si   -1.365431   -6.827939   -4.093653
Si   -1.361328   -9.571968   -1.361328
Si   -4.093653   -6.827939   -1.365431
Si   -5.445757  -10.891765   -0.022176
Si   -2.725036   -8.193774    0.000014
Si   -2.730421  -10.915552    2.730421
Si   -5.459692   -8.188789    2.731235
Si   -4.094706   -9.552628    1.363939
Si   -1.363104   -6.825601    1.363104
Si   -1.363939   -9.552628    4.094706
Si   -4.091915   -6.822368    4.091915
Si   -5.441801  -10.902077    5.441801
Si   -2.731235   -8.188789    5.459692
Si   -5.441295   -8.171786    8.171786
Si   -4.113714   -9.536909    6.805832
Si   -1.364861   -6.824229    6.824229
Si   -4.113714   -6.805832    9.536909
Si   -1.336197   -4.085436  -12.273417
Si   -4.085436   -1.336197  -12.273417
Si   -2.723910   -2.723910  -10.942012
Si   -2.732011   -5.457575   -8.191378
Si   -5.457575   -2.732011   -8.191378
Si   -4.069936   -4.069936   -9.546449
Si   -1.361328   -1.361328   -9.571968
Si   -1.365431   -4.093653   -6.827939
Si   -4.093653   -1.365431   -6.827939
Si   -5.457284   -5.457284   -5.457284
Si   -2.728721   -2.728721   -5.459785
Si   -2.728721   -5.459785   -2.728721
Si   -5.459785   -2.728721   -2.728721
Si   -4.094152   -4.094152   -4.094152
Si   -1.364569   -1.364569   -4.094671
Si   -1.364569   -4.094671   -1.364569
Si   -4.094671   -1.364569   -1.364569
Si   -5.458986   -5.458986    0.000829
Si   -2.729828   -2.729828   -0.000584
Si   -2.727635   -5.458875    2.727635
Si   -5.458875   -2.727635    2.727635
Si   -4.094031   -4.094031    1.364180
Si   -1.365086   -1.365086    1.365086
Si   -1.364180   -4.094031    4.094031
Si   -4.094031   -1.364180    4.094031
Si   -5.460500   -5.460500    5.460500
Si   -2.727635   -2.727635    5.458875
Si   -2.731235   -5.459692    8.188789
Si   -5.459692   -2.731235    8.188789
Si   -4.091915   -4.091915    6.822368
Si   -1.363104   -1.363104    6.825601
Si   -1.363939   -4.094706    9.552628
Si   -4.094706   -1.363939    9.552628
Si   -5.441801   -5.441801   10.902077
Si   -2.730421   -2.730421   10.915552
Si   -4.094138   -4.094138   12.250038
Si   -1.378025   -1.378025   12.304408
Si   -2.837317    0.102742  -13.624438
Si   -1.378025    1.378025  -12.304408
Si   -4.094138    4.094138  -12.250038
Si   -5.445757   -0.022176  -10.891765
Si   -2.730421    2.730421  -10.915552
Si   -2.725036    0.000014   -8.193774
Si   -5.459692    2.731235   -8.188789
Si   -4.094706    1.363939   -9.552628
Si   -1.363939    4.094706   -9.552628
Si   -1.363104    1.363104   -6.825601
Si   -4.091915    4.091915   -6.822368
Si   -5.458986    0.000829   -5.458986
Si   -2.727635    2.727635   -5.458875
Si   -2.729828   -0.000584   -2.729828
Si   -5.458875    2.727635   -2.727635
Si   -4.094031    1.364180   -4.094031
Si   -1.364180    4.094031   -4.094031
Si   -1.365086    1.365086   -1.365086
Si   -4.094031    4.094031   -1.364180
Si   -5.459452    0.000000    0.000000
Si   -2.729828    2.729828    0.000584
Si   -2.729828    0.000584    2.729828
Si   -5.459785    2.728721    2.728721
Si   -4.094671    1.364569    1.364569
Si   -1.364569    4.094671    1.364569
Si   -1.364569    1.364569    4.094671
Si   -4.094152    4.094152    4.094152
Si   -5.458986   -0.000829    5.458986
Si   -2.728721    2.728721    5.459785
Si   -2.725036   -0.000014    8.193774
Si   -5.457575    2.732011    8.191378
Si   -4.093653    1.365431    6.827939
Si   -1.365431    4.093653    6.827939
Si   -1.361328    1.361328    9.571968
Si   -4.069936    4.069936    9.546449
Si   -5.445757    0.022176   10.891765
Si   -2.723910    2.723910   10.942012
Si   -2.837317   -0.102742   13.624438
Si   -4.085436    1.336197   12.273417
Si   -1.336197    4.085436   12.273417
Si   -5.441801    5.441801  -10.902077
Si   -2.731235    5.459692   -8.188789
Si   -5.441295    8.171786   -8.171786
Si   -4.113714    6.805832   -9.536909
Si   -1.364861    6.824229   -6.824229
Si   -4.113714    9.536909   -6.805832
Si   -5.460500    5.460500   -5.460500
Si   -2.731235    8.188789   -5.459692
Si   -2.727635    5.458875   -2.727635
Si   -5.459692    8.188789   -2.731235
Si   -4.091915    6.822368   -4.091915
Si   -1.363939    9.552628   -4.094706
Si   -1.363104    6.825601   -1.363104
Si   -4.094706    9.552628   -1.363939
Si   -5.458986    5.458986   -0.000829
Si   -2.725036    8.193774   -0.000014
Si   -2.728721    5.459785    2.728721
Si   -5.457575    8.191378    2.732011
Si   -4.093653    6.827939    1.365431
Si   -1.361328    9.571968    1.361328
Si   -1.365431    6.827939    4.093653
Si   -4.069936    9.546449    4.069936
Si   -5.457284    5.457284    5.457284
Si   -2.732011    8.191378    5.457575
Si   -2.732011    5.457575    8.191378
Si   -4.077837    6.804143    6.804143
Si   -1.350840    9.531082    6.809476
Si   -1.350840    6.809476    9.531082
Si   -5.441801   10.902077   -5.441801
Si   -2.730421   10.915552   -2.730421
Si   -4.094138   12.250038   -4.094138
Si   -1.378025   12.304408   -1.378025
Si   -5.445757   10.891765    0.022176
Si   -2.837317   13.624438   -0.102742
Si   -2.723910   10.942012    2.723910
Si   -4.085436   12.273417    1.336197
Si   -1.336197   12.273417    4.085436
Si    0.102742  -13.624438   -2.837317
Si    4.094138  -12.250038   -4.094138
Si    1.378025  -12.304408   -1.378025
Si    2.837317  -13.624438   -0.102742
Si   -0.102742  -13.624438    2.837317
Si    4.085436  -12.273417    1.336197
Si    1.336197  -12.273417    4.085436
Si   -0.017432   -8.169798   -8.169798
Si    4.113714   -6.805832   -9.536909
Si    4.113714   -9.536909   -6.805832
Si    1.364861   -6.824229   -6.824229
Si   -0.022176  -10.891765   -5.445757
Si    2.731235   -8.188789   -5.459692
Si    2.730421  -10.915552   -2.730421
Si    0.000014   -8.193774   -2.725036
Si    1.363939   -9.552628   -4.094706
Si    4.091915   -6.822368   -4.091915
Si    4.094706   -9.552628   -1.363939
Si    1.363104   -6.825601   -1.363104
Si   -0.000000  -10.953993    0.000000
Si    2.725036   -8.193774   -0.000014
Si    2.723910  -10.942012    2.723910
Si   -0.000014   -8.193774    2.725036
Si    1.361328   -9.571968    1.361328
Si    4.093653   -6.827939    1.365431
Si    4.069936   -9.546449    4.069936
Si    1.365431   -6.827939    4.093653
Si    0.022176  -10.891765    5.445757
Si    2.732011   -8.191378    5.457575
Si    0.017432   -8.169798    8.169798
Si    1.350840   -9.531082    6.809476
Si    4.077837   -6.804143    6.804143
Si    1.350840   -6.809476    9.531082
Si    0.102742   -2.837317  -13.624438
Si    4.094138   -4.094138  -12.250038
Si    1.378025   -1.378025  -12.304408
Si   -0.022176   -5.445757  -10.891765
Si    2.730421   -2.730421  -10.915552
Si    2.731235   -5.459692   -8.188789
Si    0.000014   -2.725036   -8.193774
Si    1.363939   -4.094706   -9.552628
Si    4.094706   -1.363939   -9.552628
Si    4.091915   -4.091915   -6.822368
Si    1.363104   -1.363104   -6.825601
Si    0.000829   -5.458986   -5.458986
Si    2.727635   -2.727635   -5.458875
Si    2.727635   -5.458875   -2.727635
Si   -0.000584   -2.729828   -2.729828
Si    1.364180   -4.094031   -4.094031
Si    4.094031   -1.364180   -4.094031
Si    4.094031   -4.094031   -1.364180
Si    1.365086   -1.365086   -1.365086
Si   -0.000000   -5.459452    0.000000
Si    2.729828   -2.729828    0.000584
Si    2.728721   -5.459785    2.728721
Si    0.000584   -2.729828    2.729828
Si    1.364569   -4.094671    1.364569
Si    4.094671   -1.364569    1.364569
Si    4.094152   -4.094152    4.094152
Si    1.364569   -1.364569    4.094671
Si   -0.000829   -5.458986    5.458986
Si    2.728721   -2.728721    5.459785
Si    2.732011   -5.457575    8.191378
Si   -0.000014   -2.725036    8.193774
Si    1.365431   -4.093653    6.827939
Si    4.093653   -1.365431    6.827939
Si    4.069936   -4.069936    9.546449
Si    1.361328   -1.361328    9.571968
Si    0.022176   -5.445757   10.891765
Si    2.723910   -2.723910   10.942012
Si   -0.102742   -2.837317   13.624438
Si    1.336197   -4.085436   12.273417
Si    4.085436   -1.336197   12.273417
Si    2.837317   -0.102742  -13.624438
Si   -0.102742    2.837317  -13.624438
Si    4.085436    1.336197  -12.273417
Si    1.336197    4.085436  -12.273417
Si   -0.000000   -0.000000  -10.953993
Si    2.723910    2.723910  -10.942012
Si    2.725036   -0.000014   -8.193774
Si   -0.000014    2.725036   -8.193774
Si    1.361328    1.361328   -9.571968
Si    4.069936    4.069936   -9.546449
Si    4.093653    1.365431   -6.827939
Si    1.365431    4.093653   -6.827939
Si   -0.000000   -0.000000   -5.459452
Si    2.728721    2.728721   -5.459785
Si    2.729828    0.000584   -2.729828
Si    0.000584    2.729828   -2.729828
Si    1.364569    1.364569   -4.094671
Si    4.094152    4.094152   -4.094152
Si    4.094671    1.364569   -1.364569
Si    1.364569    4.094671   -1.364569
Si    0.000000    0.000000    0.000000
Si    2.729828    2.729828   -0.000584
Si    2.729828   -0.000584    2.729828
Si   -0.000584    2.729828    2.729828
Si    1.365086    1.365086    1.365086
Si    4.094031    4.094031    1.364180
Si    4.094031    1.364180    4.094031
Si    1.364180    4.094031    4.094031
Si    0.000000    0.000000    5.459452
Si    2.727635    2.727635    5.458875
Si    2.725036    0.000014    8.193774
Si    0.000014    2.725036    8.193774
Si    1.363104    1.363104    6.825601
Si    4.091915    4.091915    6.822368
Si    4.094706    1.363939    9.552628
Si    1.363939    4.094706    9.552628
Si    0.000000    0.000000   10.953993
Si    2.730421    2.730421   10.915552
Si    2.837317    0.102742   13.624438
Si    0.102742    2.837317   13.624438
Si    1.378025    1.378025   12.304408
Si    4.094138    4.094138   12.250038
Si    0.022176    5.445757  -10.891765
Si    2.732011    5.457575   -8.191378
Si    0.017432    8.169798   -8.169798
Si    1.350840    6.809476   -9.531082
Si    4.077837    6.804143   -6.804143
Si    1.350840    9.531082   -6.809476
Si   -0.000829    5.458986   -5.458986
Si    2.732011    8.191378   -5.457575
Si    2.728721    5.459785   -2.728721
Si   -0.000014    8.193774   -2.725036
Si    1.365431    6.827939   -4.093653
Si    4.069936    9.546449   -4.069936
Si    4.093653    6.827939   -1.365431
Si    1.361328    9.571968   -1.361328
Si    0.000000    5.459452    0.000000
Si    2.725036    8.193774    0.000014
Si    2.727635    5.458875    2.727635
Si    0.000014    8.193774    2.725036
Si    1.363104    6.825601    1.363104
Si    4.094706    9.552628    1.363939
Si    4.091915    6.822368    4.091915
Si    1.363939    9.552628    4.094706
Si    0.000829    5.458986    5.458986
Si    2.731235    8.188789    5.459692
Si    2.731235    5.459692    8.188789
Si   -0.017432    8.169798    8.169798
Si    1.364861    6.824229    6.824229
Si    4.113714    9.536909    6.805832
Si    4.113714    6.805832    9.536909
Si   -0.022176    5.445757   10.891765
Si    0.022176   10.891765   -5.445757
Si    2.723910   10.942012   -2.723910
Si   -0.102742   13.624438   -2.837317
Si    1.336197   12.273417   -4.085436
Si    4.085436   12.273417   -1.336197
Si    0.000000   10.953993    0.000000
Si    2.837317   13.624438    0.102742
Si    2.730421   10.915552    2.730421
Si    0.102742   13.624438    2.837317
Si    1.378025   12.304408    1.378025
Si    4.094138   12.250038    4.094138
Si   -0.022176   10.891765    5.445757
Si    5.441295   -8.171786   -8.171786
Si    6.826902   -6.826902   -6.826902
Si    5.441801  -10.902077   -5.441801
Si    8.171786   -8.171786   -5.441295
Si    5.459692   -8.188789   -2.731235
Si    6.805832   -9.536909   -4.113714
Si    9.536909   -6.805832   -4.113714
Si    6.824229   -6.824229   -1.364861
Si    5.445757  -10.891765    0.022176
Si    8.169798   -8.169798    0.017432
Si    5.457575   -8.191378    2.732011
Si    6.809476   -9.531082    1.350840
Si    9.531082   -6.809476    1.350840
Si    6.804143   -6.804143    4.077837
Si    5.441801   -5.441801  -10.902077
Si    8.171786   -5.441295   -8.171786
Si    5.459692   -2.731235   -8.188789
Si    6.805832   -4.113714   -9.536909
Si    9.536909   -4.113714   -6.805832
Si    6.824229   -1.364861   -6.824229
Si    5.460500   -5.460500   -5.460500
Si    8.188789   -2.731235   -5.459692
Si    8.188789   -5.459692   -2.731235
Si    5.458875   -2.727635   -2.727635
Si    6.822368   -4.091915   -4.091915
Si    9.552628   -1.363939   -4.094706
Si    9.552628   -4.094706   -1.363939
Si    6.825601   -1.363104   -1.363104
Si    5.458986   -5.458986   -0.000829
Si    8.193774   -2.725036   -0.000014
Si    8.191378   -5.457575    2.732011
Si    5.459785   -2.728721    2.728721
Si    6.827939   -4.093653    1.365431
Si    9.571968   -1.361328    1.361328
Si    9.546449   -4.069936    4.069936
Si    6.827939   -1.365431    4.093653
Si    5.457284   -5.457284    5.457284
Si    8.191378   -2.732011    5.457575
Si    5.457575   -2.732011    8.191378
Si    6.804143   -4.077837    6.804143
Si    9.531082   -1.350840    6.809476
Si    6.809476   -1.350840    9.531082
Si    5.445757    0.022176  -10.891765
Si    8.169798    0.017432   -8.169798
Si    5.457575    2.732011   -8.191378
Si    6.809476    1.350840   -9.531082
Si    9.531082    1.350840   -6.809476
Si    6.804143    4.077837   -6.804143
Si    5.458986   -0.000829   -5.458986
Si    8.191378    2.732011   -5.457575
Si    8.193774   -0.000014   -2.725036
Si    5.459785    2.728721   -2.728721
Si    6.827939    1.365431   -4.093653
Si    9.546449    4.069936   -4.069936
Si    9.571968    1.361328   -1.361328
Si    6.827939    4.093653   -1.365431
Si    5.459452    0.000000    0.000000
Si    8.193774    2.725036    0.000014
Si    8.193774    0.000014    2.725036
Si    5.458875    2.727635    2.727635
Si    6.825601    1.363104    1.363104
Si    9.552628    4.094706    1.363939
Si    9.552628    1.363939    4.094706
Si    6.822368    4.091915    4.091915
Si    5.458986    0.000829    5.458986
Si    8.188789    2.731235    5.459692
Si    8.169798   -0.017432    8.169798
Si    5.459692    2.731235    8.188789
Si    6.824229    1.364861    6.824229
Si    9.536909    4.113714    6.805832
Si    6.805832    4.113714    9.536909
Si    5.445757   -0.022176   10.891765
Si    5.457284    5.457284   -5.457284
Si    8.191378    5.457575   -2.732011
Si    5.457575    8.191378   -2.732011
Si    6.804143    6.804143   -4.077837
Si    9.531082    6.809476   -1.350840
Si    6.809476    9.531082   -1.350840
Si    5.458986    5.458986    0.000829
Si    8.169798    8.169798   -0.017432
Si    8.188789    5.459692    2.731235
Si    5.459692    8.188789    2.731235
Si    6.824229    6.824229    1.364861
Si    9.536909    6.805832    4.113714
Si    6.805832    9.536909    4.113714
Si    5.460500    5.460500    5.460500
Si    8.171786    8.171786    5.441295
Si    8.171786    5.441295    8.171786
Si    5.441295    8.171786    8.171786
Si    6.826902    6.826902    6.826902
Si    5.441801    5.441801   10.902077
Si    5.445757   10.891765   -0.022176
Si    5.441801   10.902077    5.441801
Si   10.902077   -5.441801   -5.441801
Si   10.915552   -2.730421   -2.730421
Si   12.250038   -4.094138   -4.094138
Si   12.304408   -1.378025   -1.378025
Si   10.891765   -5.445757    0.022176
Si   13.624438   -2.837317   -0.102742
Si   10.942012   -2.723910    2.723910
Si   12.273417   -4.085436    1.336197
Si   12.273417   -1.336197    4.085436
Si   10.891765    0.022176   -5.445757
Si   13.624438   -0.102742   -2.837317
Si   10.942012    2.723910   -2.723910
Si   12.273417    1.336197   -4.085436
Si   12.273417    4.085436   -1.336197
Si   10.953993    0.000000    0.000000
Si   13.624438    2.837317    0.102742
Si   13.624438    0.102742    2.837317
Si   10.915552    2.730421    2.730421
Si   12.304408    1.378025    1.378025
Si   12.250038    4.094138    4.094138
Si   10.891765   -0.022176    5.445757
Si   10.891765    5.445757   -0.022176
Si   10.902077    5.441801    5.441801
 H  -13.137727   -2.205156   -4.956032
 H  -13.137727   -4.956032   -2.205156
 H  -13.137727    4.956032    2.205156
 H  -13.137727    2.205156    4.956032
 H   -7.671809   -7.671809   -4.947080
 H   -7.675975  -10.399115   -2.220244
 H  -10.399115   -7.675975   -2.220244
 H   -9.036522   -9.036522    0.853263
 H   -7.672899  -10.398676    3.238446
 H  -10.398676   -7.672899    3.238446
 H   -9.038631   -9.038631    6.311895
 H   -7.675975   -2.220244  -10.399115
 H   -7.671809   -4.947080   -7.671809
 H  -10.399115   -2.220244   -7.675975
 H  -10.411710   -4.939785   -4.939785
 H  -11.754704   -6.311924    0.853665
 H  -11.765243   -6.312107    6.312107
 H   -9.038631   -6.311895    9.038631
 H  -10.398676   -3.238446    7.672899
 H   -7.672899   -3.238446   10.398676
 H   -9.036522    0.853263   -9.036522
 H   -7.672899    3.238446  -10.398676
 H  -10.398676    3.238446   -7.672899
 H  -11.754704    0.853665   -6.311924
 H  -10.411710    4.939785    4.939785
 H  -11.754704   -0.853665    6.311924
 H   -9.036522   -0.853263    9.036522
 H  -10.399115    2.220244    7.675975
 H   -7.671809    4.947080    7.671809
 H   -7.675975    2.220244   10.399115
 H   -9.038631    6.311895   -9.038631
 H  -11.765243    6.312107   -6.312107
 H   -9.038631    9.038631   -6.311895
 H  -10.398676    7.672899   -3.238446
 H   -7.672899   10.398676   -3.238446
 H  -11.754704    6.311924   -0.853665
 H   -9.036522    9.036522   -0.853263
 H  -10.399115    7.675975    2.220244
 H   -7.675975   10.399115    2.220244
 H   -7.671809    7.671809    4.947080
 H   -2.205156  -13.137727   -4.956032
 H   -4.956032  -13.137727   -2.205156
 H   -2.220244   -7.675975  -10.399115
 H   -2.220244  -10.399115   -7.675975
 H   -4.947080   -7.671809   -7.671809
 H   -4.939785  -10.411710   -4.939785
 H   -6.311924  -11.754704    0.853665
 H   -6.312107  -11.765243    6.312107
 H   -6.311895   -9.038631    9.038631
 H   -3.238446  -10.398676    7.672899
 H   -3.238446   -7.672899   10.398676
 H   -2.205156   -4.956032  -13.137727
 H   -4.956032   -2.205156  -13.137727
 H   -4.939785   -4.939785  -10.411710
 H   -6.312107   -6.312107   11.765243
 H   -6.311924    0.853665  -11.754704
 H   -4.939785    4.939785   10.411710
 H   -6.311924   -0.853665   11.754704
 H   -4.956032    2.205156   13.137727
 H   -2.205156    4.956032   13.137727
 H   -6.312107    6.312107  -11.765243
 H   -6.311895    9.038631   -9.038631
 H   -3.238446    7.672899  -10.398676
 H   -3.238446   10.398676   -7.672899
 H   -4.939785   10.411710    4.939785
 H   -4.947080    7.671809    7.671809
 H   -2.220244   10.399115    7.675975
 H   -2.220244    7.675975   10.399115
 H   -6.312107   11.765243   -6.312107
 H   -6.311924   11.754704   -0.853665
 H   -4.956032   13.137727    2.205156
 H   -2.205156   13.137727    4.956032
 H    4.956032  -13.137727    2.205156
 H    2.205156  -13.137727    4.956032
 H    0.853263   -9.036522   -9.036522
 H    3.238446   -7.672899  -10.398676
 H    3.238446  -10.398676   -7.672899
 H    0.853665  -11.754704   -6.311924
 H    4.939785  -10.411710    4.939785
 H   -0.853665  -11.754704    6.311924
 H   -0.853263   -9.036522    9.036522
 H    2.220244  -10.399115    7.675975
 H    4.947080   -7.671809    7.671809
 H    2.220244   -7.675975   10.399115
 H    0.853665   -6.311924  -11.754704
 H    4.939785   -4.939785   10.411710
 H   -0.853665   -6.311924   11.754704
 H    2.205156   -4.956032   13.137727
 H    4.956032   -2.205156   13.137727
 H    4.956032    2.205156  -13.137727
 H    2.205156    4.956032  -13.137727
 H    4.939785    4.939785  -10.411710
 H   -0.853665    6.311924  -11.754704
 H   -0.853263    9.036522   -9.036522
 H    2.220244    7.675975  -10.399115
 H    4.947080    7.671809   -7.671809
 H    2.220244   10.399115   -7.675975
 H    4.939785   10.411710   -4.939785
 H    0.853263    9.036522    9.036522
 H    3.238446   10.398676    7.672899
 H    3.238446    7.672899   10.398676
 H    0.853665    6.311924   11.754704
 H   -0.853665   11.754704   -6.311924
 H    2.205156   13.137727   -4.956032
 H    4.956032   13.137727   -2.205156
 H    0.853665   11.754704    6.311924
 H    6.311895   -9.038631   -9.038631
 H    6.312107  -11.765243   -6.312107
 H    9.038631   -9.038631   -6.311895
 H    7.672899  -10.398676   -3.238446
 H   10.398676   -7.672899   -3.238446
 H    6.311924  -11.754704   -0.853665
 H    9.036522   -9.036522   -0.853263
 H    7.675975  -10.399115    2.220244
 H   10.399115   -7.675975    2.220244
 H    7.671809   -7.671809    4.947080
 H    6.312107   -6.312107  -11.765243
 H    9.038631   -6.311895   -9.038631
 H    7.672899   -3.238446  -10.398676
 H   10.398676   -3.238446   -7.672899
 H   10.411710   -4.939785    4.939785
 H    7.671809   -4.947080    7.671809
 H   10.399115   -2.220244    7.675975
 H    7.675975   -2.220244   10.399115
 H    6.311924   -0.853665  -11.754704
 H    9.036522   -0.853263   -9.036522
 H    7.675975    2.220244  -10.399115
 H   10.399115    2.220244   -7.675975
 H    7.671809    4.947080   -7.671809
 H   10.411710    4.939785   -4.939785
 H    9.036522    0.853263    9.036522
 H   10.398676    3.238446    7.672899
 H    7.672899    3.238446   10.398676
 H    6.311924    0.853665   11.754704
 H    7.671809    7.671809   -4.947080
 H   10.399115    7.675975   -2.220244
 H    7.675975   10.399115   -2.220244
 H    9.036522    9.036522    0.853263
 H   10.398676    7.672899    3.238446
 H    7.672899   10.398676    3.238446
 H    9.038631    9.038631    6.311895
 H    9.038631    6.311895    9.038631
 H    6.311895    9.038631    9.038631
 H    6.312107    6.312107   11.765243
 H    6.311924   11.754704    0.853665
 H    6.312107   11.765243    6.312107
 H   11.765243   -6.312107   -6.312107
 H   11.754704   -6.311924   -0.853665
 H   13.137727   -4.956032    2.205156
 H   13.137727   -2.205156    4.956032
 H   11.754704   -0.853665   -6.311924
 H   13.137727    2.205156   -4.956032
 H   13.137727    4.956032   -2.205156
 H   11.754704    0.853665    6.311924
 H   11.754704    6.311924    0.853665
 H   11.765243    6.312107    6.312107
 H  -14.337817   -3.768640    1.035944
 H  -14.664211   -2.076331   -0.663267
 H  -13.135816   -4.944199    3.235079
 H  -13.135816   -3.235079    4.944199
 H  -14.664211   -0.663267   -2.076331
 H  -14.337817    1.035944   -3.768640
 H  -13.135816    4.944199   -3.235079
 H  -13.135816    3.235079   -4.944199
 H  -14.664211    2.076331    0.663267
 H  -14.337817    3.768640   -1.035944
 H  -14.337817   -1.035944    3.768640
 H  -14.664211    0.663267    2.076331
 H   -2.076331  -14.664211   -0.663267
 H   -3.768640  -14.337817    1.035944
 H   -3.235079  -13.135816    4.944199
 H   -4.944199  -13.135816    3.235079
 H   -3.235079   -4.944199   13.135816
 H   -4.944199   -3.235079   13.135816
 H   -3.768640    1.035944  -14.337817
 H   -2.076331   -0.663267  -14.664211
 H   -4.944199    3.235079  -13.135816
 H   -3.235079    4.944199  -13.135816
 H   -2.076331    0.663267   14.664211
 H   -3.768640   -1.035944   14.337817
 H   -4.944199   13.135816   -3.235079
 H   -3.235079   13.135816   -4.944199
 H   -3.768640   14.337817   -1.035944
 H   -2.076331   14.664211    0.663267
 H    1.035944  -14.337817   -3.768640
 H   -0.663267  -14.664211   -2.076331
 H    3.235079  -13.135816   -4.944199
 H    4.944199  -13.135816   -3.235079
 H    3.768640  -14.337817   -1.035944
 H    2.076331  -14.664211    0.663267
 H    0.663267  -14.664211    2.076331
 H   -1.035944  -14.337817    3.768640
 H   -0.663267   -2.076331  -14.664211
 H    1.035944   -3.768640  -14.337817
 H    4.944199   -3.235079  -13.135816
 H    3.235079   -4.944199  -13.135816
 H   -1.035944   -3.768640   14.337817
 H    0.663267   -2.076331   14.664211
 H    2.076331    0.663267  -14.664211
 H    3.768640   -1.035944  -14.337817
 H   -1.035944    3.768640  -14.337817
 H    0.663267    2.076331  -14.664211
 H    3.768640    1.035944   14.337817
 H    2.076331   -0.663267   14.664211
 H   -0.663267    2.076331   14.664211
 H    1.035944    3.768640   14.337817
 H    4.944199    3.235079   13.135816
 H    3.235079    4.944199   13.135816
 H    0.663267   14.664211   -2.076331
 H   -1.035944   14.337817   -3.768640
 H    2.076331   14.664211   -0.663267
 H    3.768640   14.337817    1.035944
 H    1.035944   14.337817    3.768640
 H   -0.663267   14.664211    2.076331
 H    3.235079   13.135816    4.944199
 H    4.944199   13.135816    3.235079
 H   13.135816   -3.235079   -4.944199
 H   13.135816   -4.944199   -3.235079
 H   14.664211   -2.076331    0.663267
 H   14.337817   -3.768640   -1.035944
 H   14.337817   -1.035944   -3.768640
 H   14.664211    0.663267   -2.076331
 H   14.337817    3.768640    1.035944
 H   14.664211    2.076331   -0.663267
 H   14.664211   -0.663267    2.076331
 H   14.337817    1.035944    3.768640
 H   13.135816    4.944199    3.235079
 H   13.135816    3.235079    4.944199
