17
Geometry Step: 53
Si   -2.738932   -2.738932    0.007114
Si   -1.370426   -1.370426    1.370426
Si   -2.738932    0.007114   -2.738932
Si   -1.370426    1.370426   -1.370426
Si   -2.738932    2.738932   -0.007114
Si   -2.738932   -0.007114    2.738932
Si    0.007114   -2.738932   -2.738932
Si    1.370426   -1.370426   -1.370426
Si    2.738932   -2.738932   -0.007114
Si   -0.007114   -2.738932    2.738932
Si    2.738932   -0.007114   -2.738932
Si   -0.007114    2.738932   -2.738932
Si    0.000000    0.000000    0.000000
Si    2.738932    2.738932    0.007114
Si    2.738932    0.007114    2.738932
Si    0.007114    2.738932    2.738932
Si    1.370426    1.370426    1.370426
