501
Geometry Step: 33
Si  -12.259371   -1.367551    1.367551
Si  -12.259371    1.367551   -1.367551
Si   -6.805948   -6.805948   -4.075800
Si   -6.805326   -6.805326    1.381121
Si   -6.805948   -4.075800   -6.805948
Si   -8.172689   -2.748190   -5.441697
Si   -8.172689   -5.441697   -2.748190
Si  -10.887316   -2.729445   -2.729445
Si   -9.536583   -4.076049   -4.076049
Si   -6.826248   -1.365483   -4.094307
Si   -6.826248   -4.094307   -1.365483
Si   -9.561145   -1.361914   -1.361914
Si   -8.191277   -2.726506    0.000093
Si   -8.169495   -5.440831    2.710008
Si  -10.902987   -2.711210    2.711210
Si   -9.536494   -4.074999    1.383240
Si   -6.822758   -1.362180    1.362180
Si   -6.825531   -4.095146    4.095146
Si   -9.536494   -1.383240    4.074999
Si   -8.169495   -2.710008    5.440831
Si   -6.805326   -1.381121    6.805326
Si   -6.805326    1.381121   -6.805326
Si   -8.169495    2.710008   -5.440831
Si   -8.191277    0.000093   -2.726506
Si  -10.902987    2.711210   -2.711210
Si   -9.536494    1.383240   -4.074999
Si   -6.825531    4.095146   -4.095146
Si   -6.822758    1.362180   -1.362180
Si   -9.536494    4.074999   -1.383240
Si  -10.934279    0.000000    0.000000
Si   -8.191277    2.726506   -0.000093
Si   -8.191277   -0.000093    2.726506
Si  -10.887316    2.729445    2.729445
Si   -9.561145    1.361914    1.361914
Si   -6.826248    4.094307    1.365483
Si   -6.826248    1.365483    4.094307
Si   -9.536583    4.076049    4.076049
Si   -8.172689    2.748190    5.441697
Si   -6.805948    4.075800    6.805948
Si   -8.169495    5.440831   -2.710008
Si   -6.805326    6.805326   -1.381121
Si   -8.172689    5.441697    2.748190
Si   -6.805948    6.805948    4.075800
Si   -1.367551  -12.259371    1.367551
Si   -4.075800   -6.805948   -6.805948
Si   -2.748190   -8.172689   -5.441697
Si   -2.729445  -10.887316   -2.729445
Si   -5.441697   -8.172689   -2.748190
Si   -4.076049   -9.536583   -4.076049
Si   -1.365483   -6.826248   -4.094307
Si   -1.361914   -9.561145   -1.361914
Si   -4.094307   -6.826248   -1.365483
Si   -2.726506   -8.191277    0.000093
Si   -2.711210  -10.902987    2.711210
Si   -5.440831   -8.169495    2.710008
Si   -4.074999   -9.536494    1.383240
Si   -1.362180   -6.822758    1.362180
Si   -1.383240   -9.536494    4.074999
Si   -4.095146   -6.825531    4.095146
Si   -2.710008   -8.169495    5.440831
Si   -1.381121   -6.805326    6.805326
Si   -2.729445   -2.729445  -10.887316
Si   -2.748190   -5.441697   -8.172689
Si   -5.441697   -2.748190   -8.172689
Si   -4.076049   -4.076049   -9.536583
Si   -1.361914   -1.361914   -9.561145
Si   -1.365483   -4.094307   -6.826248
Si   -4.094307   -1.365483   -6.826248
Si   -5.461757   -5.461757   -5.461757
Si   -2.727631   -2.727631   -5.459357
Si   -2.727631   -5.459357   -2.727631
Si   -5.459357   -2.727631   -2.727631
Si   -4.095959   -4.095959   -4.095959
Si   -1.364476   -1.364476   -4.093239
Si   -1.364476   -4.093239   -1.364476
Si   -4.093239   -1.364476   -1.364476
Si   -5.459765   -5.459765   -0.000806
Si   -2.729134   -2.729134   -0.000459
Si   -2.730040   -5.460347    2.730040
Si   -5.460347   -2.730040    2.730040
Si   -4.094090   -4.094090    1.362308
Si   -1.365054   -1.365054    1.365054
Si   -1.362308   -4.094090    4.094090
Si   -4.094090   -1.362308    4.094090
Si   -5.440217   -5.440217    5.440217
Si   -2.730040   -2.730040    5.460347
Si   -2.710008   -5.440831    8.169495
Si   -5.440831   -2.710008    8.169495
Si   -4.095146   -4.095146    6.825531
Si   -1.362180   -1.362180    6.822758
Si   -1.383240   -4.074999    9.536494
Si   -4.074999   -1.383240    9.536494
Si   -2.711210   -2.711210   10.902987
Si   -1.367551   -1.367551   12.259371
Si   -1.367551    1.367551  -12.259371
Si   -2.711210    2.711210  -10.902987
Si   -2.726506    0.000093   -8.191277
Si   -5.440831    2.710008   -8.169495
Si   -4.074999    1.383240   -9.536494
Si   -1.383240    4.074999   -9.536494
Si   -1.362180    1.362180   -6.822758
Si   -4.095146    4.095146   -6.825531
Si   -5.459765   -0.000806   -5.459765
Si   -2.730040    2.730040   -5.460347
Si   -2.729134   -0.000459   -2.729134
Si   -5.460347    2.730040   -2.730040
Si   -4.094090    1.362308   -4.094090
Si   -1.362308    4.094090   -4.094090
Si   -1.365054    1.365054   -1.365054
Si   -4.094090    4.094090   -1.362308
Si   -5.456159    0.000000    0.000000
Si   -2.729134    2.729134    0.000459
Si   -2.729134    0.000459    2.729134
Si   -5.459357    2.727631    2.727631
Si   -4.093239    1.364476    1.364476
Si   -1.364476    4.093239    1.364476
Si   -1.364476    1.364476    4.093239
Si   -4.095959    4.095959    4.095959
Si   -5.459765    0.000806    5.459765
Si   -2.727631    2.727631    5.459357
Si   -2.726506   -0.000093    8.191277
Si   -5.441697    2.748190    8.172689
Si   -4.094307    1.365483    6.826248
Si   -1.365483    4.094307    6.826248
Si   -1.361914    1.361914    9.561145
Si   -4.076049    4.076049    9.536583
Si   -2.729445    2.729445   10.887316
Si   -2.710008    5.440831   -8.169495
Si   -1.381121    6.805326   -6.805326
Si   -5.440217    5.440217   -5.440217
Si   -2.710008    8.169495   -5.440831
Si   -2.730040    5.460347   -2.730040
Si   -5.440831    8.169495   -2.710008
Si   -4.095146    6.825531   -4.095146
Si   -1.383240    9.536494   -4.074999
Si   -1.362180    6.822758   -1.362180
Si   -4.074999    9.536494   -1.383240
Si   -5.459765    5.459765    0.000806
Si   -2.726506    8.191277   -0.000093
Si   -2.727631    5.459357    2.727631
Si   -5.441697    8.172689    2.748190
Si   -4.094307    6.826248    1.365483
Si   -1.361914    9.561145    1.361914
Si   -1.365483    6.826248    4.094307
Si   -4.076049    9.536583    4.076049
Si   -5.461757    5.461757    5.461757
Si   -2.748190    8.172689    5.441697
Si   -2.748190    5.441697    8.172689
Si   -4.075800    6.805948    6.805948
Si   -2.711210   10.902987   -2.711210
Si   -1.367551   12.259371   -1.367551
Si   -2.729445   10.887316    2.729445
Si    1.367551  -12.259371   -1.367551
Si    1.381121   -6.805326   -6.805326
Si    2.710008   -8.169495   -5.440831
Si    2.711210  -10.902987   -2.711210
Si    0.000093   -8.191277   -2.726506
Si    1.383240   -9.536494   -4.074999
Si    4.095146   -6.825531   -4.095146
Si    4.074999   -9.536494   -1.383240
Si    1.362180   -6.822758   -1.362180
Si   -0.000000  -10.934279    0.000000
Si    2.726506   -8.191277   -0.000093
Si    2.729445  -10.887316    2.729445
Si   -0.000093   -8.191277    2.726506
Si    1.361914   -9.561145    1.361914
Si    4.094307   -6.826248    1.365483
Si    4.076049   -9.536583    4.076049
Si    1.365483   -6.826248    4.094307
Si    2.748190   -8.172689    5.441697
Si    4.075800   -6.805948    6.805948
Si    1.367551   -1.367551  -12.259371
Si    2.711210   -2.711210  -10.902987
Si    2.710008   -5.440831   -8.169495
Si    0.000093   -2.726506   -8.191277
Si    1.383240   -4.074999   -9.536494
Si    4.074999   -1.383240   -9.536494
Si    4.095146   -4.095146   -6.825531
Si    1.362180   -1.362180   -6.822758
Si   -0.000806   -5.459765   -5.459765
Si    2.730040   -2.730040   -5.460347
Si    2.730040   -5.460347   -2.730040
Si   -0.000459   -2.729134   -2.729134
Si    1.362308   -4.094090   -4.094090
Si    4.094090   -1.362308   -4.094090
Si    4.094090   -4.094090   -1.362308
Si    1.365054   -1.365054   -1.365054
Si   -0.000000   -5.456159    0.000000
Si    2.729134   -2.729134    0.000459
Si    2.727631   -5.459357    2.727631
Si    0.000459   -2.729134    2.729134
Si    1.364476   -4.093239    1.364476
Si    4.093239   -1.364476    1.364476
Si    4.095959   -4.095959    4.095959
Si    1.364476   -1.364476    4.093239
Si    0.000806   -5.459765    5.459765
Si    2.727631   -2.727631    5.459357
Si    2.748190   -5.441697    8.172689
Si   -0.000093   -2.726506    8.191277
Si    1.365483   -4.094307    6.826248
Si    4.094307   -1.365483    6.826248
Si    4.076049   -4.076049    9.536583
Si    1.361914   -1.361914    9.561145
Si    2.729445   -2.729445   10.887316
Si   -0.000000   -0.000000  -10.934279
Si    2.729445    2.729445  -10.887316
Si    2.726506   -0.000093   -8.191277
Si   -0.000093    2.726506   -8.191277
Si    1.361914    1.361914   -9.561145
Si    4.076049    4.076049   -9.536583
Si    4.094307    1.365483   -6.826248
Si    1.365483    4.094307   -6.826248
Si   -0.000000   -0.000000   -5.456159
Si    2.727631    2.727631   -5.459357
Si    2.729134    0.000459   -2.729134
Si    0.000459    2.729134   -2.729134
Si    1.364476    1.364476   -4.093239
Si    4.095959    4.095959   -4.095959
Si    4.093239    1.364476   -1.364476
Si    1.364476    4.093239   -1.364476
Si    0.000000    0.000000    0.000000
Si    2.729134    2.729134   -0.000459
Si    2.729134   -0.000459    2.729134
Si   -0.000459    2.729134    2.729134
Si    1.365054    1.365054    1.365054
Si    4.094090    4.094090    1.362308
Si    4.094090    1.362308    4.094090
Si    1.362308    4.094090    4.094090
Si    0.000000    0.000000    5.456159
Si    2.730040    2.730040    5.460347
Si    2.726506    0.000093    8.191277
Si    0.000093    2.726506    8.191277
Si    1.362180    1.362180    6.822758
Si    4.095146    4.095146    6.825531
Si    4.074999    1.383240    9.536494
Si    1.383240    4.074999    9.536494
Si    0.000000    0.000000   10.934279
Si    2.711210    2.711210   10.902987
Si    1.367551    1.367551   12.259371
Si    2.748190    5.441697   -8.172689
Si    4.075800    6.805948   -6.805948
Si    0.000806    5.459765   -5.459765
Si    2.748190    8.172689   -5.441697
Si    2.727631    5.459357   -2.727631
Si   -0.000093    8.191277   -2.726506
Si    1.365483    6.826248   -4.094307
Si    4.076049    9.536583   -4.076049
Si    4.094307    6.826248   -1.365483
Si    1.361914    9.561145   -1.361914
Si    0.000000    5.456159    0.000000
Si    2.726506    8.191277    0.000093
Si    2.730040    5.460347    2.730040
Si    0.000093    8.191277    2.726506
Si    1.362180    6.822758    1.362180
Si    4.074999    9.536494    1.383240
Si    4.095146    6.825531    4.095146
Si    1.383240    9.536494    4.074999
Si   -0.000806    5.459765    5.459765
Si    2.710008    8.169495    5.440831
Si    2.710008    5.440831    8.169495
Si    1.381121    6.805326    6.805326
Si    2.729445   10.887316   -2.729445
Si    0.000000   10.934279    0.000000
Si    2.711210   10.902987    2.711210
Si    1.367551   12.259371    1.367551
Si    5.440831   -8.169495   -2.710008
Si    6.805326   -6.805326   -1.381121
Si    5.441697   -8.172689    2.748190
Si    6.805948   -6.805948    4.075800
Si    5.440831   -2.710008   -8.169495
Si    6.805326   -1.381121   -6.805326
Si    5.440217   -5.440217   -5.440217
Si    8.169495   -2.710008   -5.440831
Si    8.169495   -5.440831   -2.710008
Si    5.460347   -2.730040   -2.730040
Si    6.825531   -4.095146   -4.095146
Si    9.536494   -1.383240   -4.074999
Si    9.536494   -4.074999   -1.383240
Si    6.822758   -1.362180   -1.362180
Si    5.459765   -5.459765    0.000806
Si    8.191277   -2.726506   -0.000093
Si    8.172689   -5.441697    2.748190
Si    5.459357   -2.727631    2.727631
Si    6.826248   -4.094307    1.365483
Si    9.561145   -1.361914    1.361914
Si    9.536583   -4.076049    4.076049
Si    6.826248   -1.365483    4.094307
Si    5.461757   -5.461757    5.461757
Si    8.172689   -2.748190    5.441697
Si    5.441697   -2.748190    8.172689
Si    6.805948   -4.075800    6.805948
Si    5.441697    2.748190   -8.172689
Si    6.805948    4.075800   -6.805948
Si    5.459765    0.000806   -5.459765
Si    8.172689    2.748190   -5.441697
Si    8.191277   -0.000093   -2.726506
Si    5.459357    2.727631   -2.727631
Si    6.826248    1.365483   -4.094307
Si    9.536583    4.076049   -4.076049
Si    9.561145    1.361914   -1.361914
Si    6.826248    4.094307   -1.365483
Si    5.456159    0.000000    0.000000
Si    8.191277    2.726506    0.000093
Si    8.191277    0.000093    2.726506
Si    5.460347    2.730040    2.730040
Si    6.822758    1.362180    1.362180
Si    9.536494    4.074999    1.383240
Si    9.536494    1.383240    4.074999
Si    6.825531    4.095146    4.095146
Si    5.459765   -0.000806    5.459765
Si    8.169495    2.710008    5.440831
Si    5.440831    2.710008    8.169495
Si    6.805326    1.381121    6.805326
Si    5.461757    5.461757   -5.461757
Si    8.172689    5.441697   -2.748190
Si    5.441697    8.172689   -2.748190
Si    6.805948    6.805948   -4.075800
Si    5.459765    5.459765   -0.000806
Si    8.169495    5.440831    2.710008
Si    5.440831    8.169495    2.710008
Si    6.805326    6.805326    1.381121
Si    5.440217    5.440217    5.440217
Si   10.902987   -2.711210   -2.711210
Si   12.259371   -1.367551   -1.367551
Si   10.887316   -2.729445    2.729445
Si   10.887316    2.729445   -2.729445
Si   10.934279    0.000000    0.000000
Si   10.902987    2.711210    2.711210
Si   12.259371    1.367551    1.367551
 H   -7.672946   -7.672946   -4.945568
 H   -7.672280   -7.672280    0.511373
 H   -7.672946   -4.945568   -7.672946
 H   -9.034521   -1.874425   -6.310047
 H   -9.034521   -6.310047   -1.874425
 H  -10.402340   -4.944911   -4.944911
 H   -9.037817   -6.306612    3.579520
 H  -11.763814   -3.582448    3.582448
 H  -10.397323   -4.942609    0.507348
 H  -10.397323   -0.507348    4.942609
 H   -9.037817   -3.579520    6.306612
 H   -7.672280   -0.511373    7.672280
 H   -7.672280    0.511373   -7.672280
 H   -9.037817    3.579520   -6.306612
 H  -11.763814    3.582448   -3.582448
 H  -10.397323    0.507348   -4.942609
 H  -10.397323    4.942609   -0.507348
 H  -10.402340    4.944911    4.944911
 H   -9.034521    1.874425    6.310047
 H   -7.672946    4.945568    7.672946
 H   -9.037817    6.306612   -3.579520
 H   -7.672280    7.672280   -0.511373
 H   -9.034521    6.310047    1.874425
 H   -7.672946    7.672946    4.945568
 H   -4.945568   -7.672946   -7.672946
 H   -1.874425   -9.034521   -6.310047
 H   -6.310047   -9.034521   -1.874425
 H   -4.944911  -10.402340   -4.944911
 H   -3.582448  -11.763814    3.582448
 H   -6.306612   -9.037817    3.579520
 H   -4.942609  -10.397323    0.507348
 H   -0.507348  -10.397323    4.942609
 H   -3.579520   -9.037817    6.306612
 H   -0.511373   -7.672280    7.672280
 H   -1.874425   -6.310047   -9.034521
 H   -6.310047   -1.874425   -9.034521
 H   -4.944911   -4.944911  -10.402340
 H   -6.308172   -6.308172    6.308172
 H   -3.579520   -6.306612    9.037817
 H   -6.306612   -3.579520    9.037817
 H   -0.507348   -4.942609   10.397323
 H   -4.942609   -0.507348   10.397323
 H   -3.582448   -3.582448   11.763814
 H   -3.582448    3.582448  -11.763814
 H   -6.306612    3.579520   -9.037817
 H   -4.942609    0.507348  -10.397323
 H   -0.507348    4.942609  -10.397323
 H   -6.310047    1.874425    9.034521
 H   -4.944911    4.944911   10.402340
 H   -3.579520    6.306612   -9.037817
 H   -0.511373    7.672280   -7.672280
 H   -6.308172    6.308172   -6.308172
 H   -3.579520    9.037817   -6.306612
 H   -6.306612    9.037817   -3.579520
 H   -0.507348   10.397323   -4.942609
 H   -4.942609   10.397323   -0.507348
 H   -6.310047    9.034521    1.874425
 H   -4.944911   10.402340    4.944911
 H   -1.874425    9.034521    6.310047
 H   -1.874425    6.310047    9.034521
 H   -4.945568    7.672946    7.672946
 H   -3.582448   11.763814   -3.582448
 H    0.511373   -7.672280   -7.672280
 H    3.579520   -9.037817   -6.306612
 H    3.582448  -11.763814   -3.582448
 H    0.507348  -10.397323   -4.942609
 H    4.942609  -10.397323   -0.507348
 H    4.944911  -10.402340    4.944911
 H    1.874425   -9.034521    6.310047
 H    4.945568   -7.672946    7.672946
 H    3.582448   -3.582448  -11.763814
 H    3.579520   -6.306612   -9.037817
 H    0.507348   -4.942609  -10.397323
 H    4.942609   -0.507348  -10.397323
 H    1.874425   -6.310047    9.034521
 H    4.944911   -4.944911   10.402340
 H    4.944911    4.944911  -10.402340
 H    4.942609    0.507348   10.397323
 H    0.507348    4.942609   10.397323
 H    3.582448    3.582448   11.763814
 H    1.874425    6.310047   -9.034521
 H    4.945568    7.672946   -7.672946
 H    1.874425    9.034521   -6.310047
 H    4.944911   10.402340   -4.944911
 H    4.942609   10.397323    0.507348
 H    0.507348   10.397323    4.942609
 H    3.579520    9.037817    6.306612
 H    3.579520    6.306612    9.037817
 H    0.511373    7.672280    7.672280
 H    3.582448   11.763814    3.582448
 H    6.306612   -9.037817   -3.579520
 H    7.672280   -7.672280   -0.511373
 H    6.310047   -9.034521    1.874425
 H    7.672946   -7.672946    4.945568
 H    6.306612   -3.579520   -9.037817
 H    7.672280   -0.511373   -7.672280
 H    6.308172   -6.308172   -6.308172
 H    9.037817   -3.579520   -6.306612
 H    9.037817   -6.306612   -3.579520
 H   10.397323   -0.507348   -4.942609
 H   10.397323   -4.942609   -0.507348
 H    9.034521   -6.310047    1.874425
 H   10.402340   -4.944911    4.944911
 H    9.034521   -1.874425    6.310047
 H    6.310047   -1.874425    9.034521
 H    7.672946   -4.945568    7.672946
 H    6.310047    1.874425   -9.034521
 H    7.672946    4.945568   -7.672946
 H    9.034521    1.874425   -6.310047
 H   10.402340    4.944911   -4.944911
 H   10.397323    4.942609    0.507348
 H   10.397323    0.507348    4.942609
 H    9.037817    3.579520    6.306612
 H    6.306612    3.579520    9.037817
 H    7.672280    0.511373    7.672280
 H    9.034521    6.310047   -1.874425
 H    6.310047    9.034521   -1.874425
 H    7.672946    7.672946   -4.945568
 H    9.037817    6.306612    3.579520
 H    6.306612    9.037817    3.579520
 H    7.672280    7.672280    0.511373
 H    6.308172    6.308172    6.308172
 H   11.763814   -3.582448   -3.582448
 H   11.763814    3.582448    3.582448
 H  -13.144293   -0.514319    2.223696
 H  -13.144293   -2.223696    0.514319
 H  -13.144293    0.514319   -2.223696
 H  -13.144293    2.223696   -0.514319
 H  -11.772743   -3.583089   -1.873956
 H  -11.772743   -1.873956   -3.583089
 H  -11.772743    1.873956    3.583089
 H  -11.772743    3.583089    1.873956
 H   -2.223696  -13.144293    0.514319
 H   -0.514319  -13.144293    2.223696
 H   -1.873956  -11.772743   -3.583089
 H   -3.583089  -11.772743   -1.873956
 H   -3.583089   -1.873956  -11.772743
 H   -1.873956   -3.583089  -11.772743
 H   -0.514319   -2.223696   13.144293
 H   -2.223696   -0.514319   13.144293
 H   -0.514319    2.223696  -13.144293
 H   -2.223696    0.514319  -13.144293
 H   -1.873956    3.583089   11.772743
 H   -3.583089    1.873956   11.772743
 H   -2.223696   13.144293   -0.514319
 H   -0.514319   13.144293   -2.223696
 H   -3.583089   11.772743    1.873956
 H   -1.873956   11.772743    3.583089
 H    2.223696  -13.144293   -0.514319
 H    0.514319  -13.144293   -2.223696
 H    3.583089  -11.772743    1.873956
 H    1.873956  -11.772743    3.583089
 H    0.514319   -2.223696  -13.144293
 H    2.223696   -0.514319  -13.144293
 H    3.583089   -1.873956   11.772743
 H    1.873956   -3.583089   11.772743
 H    1.873956    3.583089  -11.772743
 H    3.583089    1.873956  -11.772743
 H    2.223696    0.514319   13.144293
 H    0.514319    2.223696   13.144293
 H    1.873956   11.772743   -3.583089
 H    3.583089   11.772743   -1.873956
 H    0.514319   13.144293    2.223696
 H    2.223696   13.144293    0.514319
 H   13.144293   -0.514319   -2.223696
 H   13.144293   -2.223696   -0.514319
 H   11.772743   -1.873956    3.583089
 H   11.772743   -3.583089    1.873956
 H   11.772743    3.583089   -1.873956
 H   11.772743    1.873956   -3.583089
 H   13.144293    2.223696    0.514319
 H   13.144293    0.514319    2.223696

