# Projected DOS for atomic kind Si at iteration step i = 0, E(Fermi) =    -0.445981 a.u.
#     MO Eigenvalue [a.u.]      Occupation                 s                py                pz                px               d-2               d-1                d0               d+1               d+2
       1         -0.757431        2.000000        0.97190885        0.00450082        0.00450082        0.00450082        0.00102154        0.00102154        0.00023014        0.00102154        0.00023014
       2         -0.755590        2.000000        0.94080539        0.00826625        0.01264785        0.00843288        0.00373837        0.00330716        0.00126967        0.00329011        0.00078245
       3         -0.755590        2.000000        0.94080539        0.01178045        0.00551919        0.01204734        0.00300908        0.00367693        0.00066363        0.00364963        0.00138849
       4         -0.755590        2.000000        0.94080539        0.00930028        0.01117994        0.00886676        0.00358819        0.00335155        0.00114488        0.00339590        0.00090724
       5         -0.752797        2.000000        0.90505462        0.01178783        0.01099235        0.02414336        0.00443489        0.00998796        0.00223303        0.00477079        0.00413793
       6         -0.752797        2.000000        0.90505462        0.01949453        0.02029001        0.00713900        0.00836087        0.00280780        0.00413793        0.00802497        0.00223303
       7         -0.752785        2.000000        0.89690505        0.01727732        0.01214322        0.01805275        0.00953229        0.00782233        0.00189984        0.00804670        0.00179602
       8         -0.752785        2.000000        0.89690505        0.01352726        0.02113060        0.01281543        0.00693174        0.00933778        0.00177311        0.00913181        0.00192276
       9         -0.752785        2.000000        0.89690505        0.01666870        0.01419947        0.01660512        0.00893730        0.00824121        0.00187085        0.00822281        0.00182502
      10         -0.750832        2.000000        0.87490865        0.01963321        0.01963321        0.01963321        0.01237997        0.01237997        0.00328222        0.01237997        0.00328222
      11         -0.749808        2.000000        0.85487032        0.01985779        0.01985779        0.01985779        0.01517780        0.01517780        0.00136048        0.01517780        0.00136048
      12         -0.749323        2.000000        0.86173944        0.01926295        0.02275722        0.02133335        0.01110971        0.01058738        0.00610835        0.00982789        0.00536889
      13         -0.749323        2.000000        0.86173944        0.02363755        0.01468507        0.02503089        0.00814856        0.01194378        0.00428784        0.01143265        0.00718939
      14         -0.749323        2.000000        0.86173944        0.02045302        0.02591122        0.01698927        0.01226671        0.00899382        0.00681966        0.01026445        0.00465757
      15         -0.748319        2.000000        0.84106163        0.02276897        0.02393289        0.02270380        0.01427195        0.01763826        0.00304341        0.01745978        0.00409774
      16         -0.748319        2.000000        0.84106163        0.02367822        0.02196281        0.02376463        0.01966775        0.01473278        0.00434540        0.01496946        0.00279575
      17         -0.748319        2.000000        0.84106163        0.02295848        0.02350996        0.02293722        0.01543029        0.01699896        0.00332291        0.01694075        0.00381824
      18         -0.745959        2.000000        0.80977940        0.02373038        0.03310587        0.02331987        0.02184592        0.02396092        0.00569138        0.02387220        0.00423483
      19         -0.745959        2.000000        0.80977940        0.03102715        0.01732545        0.03180351        0.02525647        0.02212740        0.00389207        0.02229519        0.00603414
      20         -0.745959        2.000000        0.80977940        0.02539859        0.02972479        0.02503273        0.02257666        0.02359073        0.00530586        0.02351166        0.00462035
      21         -0.744612        2.000000        0.81352770        0.02770784        0.02770784        0.02770784        0.01588334        0.01588334        0.01015709        0.01588334        0.01015709
      22         -0.744580        2.000000        0.79303248        0.02688541        0.02901025        0.02207494        0.02644273        0.02773615        0.00232127        0.02683900        0.00182642
      23         -0.744580        2.000000        0.79303248        0.02375317        0.02281218        0.03140525        0.02759866        0.02599606        0.00181348        0.02742316        0.00233422
      24         -0.744580        2.000000        0.79303248        0.02733201        0.02614817        0.02449042        0.02697650        0.02728567        0.00208679        0.02675572        0.00206091
      25         -0.744338        2.000000        0.80674419        0.02830892        0.02348135        0.02889907        0.01773342        0.01741847        0.00748609        0.01745278        0.00816308
      26         -0.744338        2.000000        0.80674419        0.02203425        0.03744082        0.02121427        0.01692193        0.01786521        0.00886972        0.01781754        0.00677945
      27         -0.744338        2.000000        0.80674419        0.03034617        0.01976718        0.03057600        0.01794933        0.01732099        0.00711795        0.01733435        0.00853123
      28         -0.743065        2.000000        0.79191129        0.03293777        0.03162622        0.02405620        0.02196566        0.01955851        0.00988953        0.02238272        0.00791954
      29         -0.743065        2.000000        0.79191129        0.02614236        0.02745391        0.03502392        0.02063893        0.02304608        0.00791954        0.02022187        0.00988953
      30         -0.740207        2.000000        0.75862363        0.02476785        0.02528671        0.03520597        0.02481031        0.03958089        0.00351373        0.02403768        0.00582882
      31         -0.740207        2.000000        0.75862363        0.03207251        0.03155364        0.02163438        0.03414228        0.01937170        0.00582882        0.03491491        0.00351373
      32         -0.739829        2.000000        0.74347799        0.03331401        0.02933638        0.03381856        0.04037654        0.03441128        0.00491856        0.03508277        0.00458925
      33         -0.739829        2.000000        0.74347799        0.02806536        0.04096290        0.02744069        0.02490299        0.04289948        0.00423969        0.04206812        0.00526812
      34         -0.739829        2.000000        0.74347799        0.03508958        0.02616966        0.03520970        0.04459107        0.03255983        0.00510346        0.03271969        0.00440435
      35         -0.739598        2.000000        0.74372037        0.02956195        0.02876713        0.03959166        0.02875646        0.04565287        0.00527525        0.02999712        0.00874284
      36         -0.739598        2.000000        0.74372037        0.03571854        0.03651336        0.02568884        0.04084784        0.02395143        0.00874284        0.03960718        0.00527525
      37         -0.738376        2.000000        0.75599048        0.03172979        0.03525284        0.03160142        0.02465114        0.02197208        0.01372409        0.02206626        0.01197117
      38         -0.738376        2.000000        0.75599048        0.03629491        0.02529906        0.03699009        0.01734801        0.02592576        0.01007611        0.02541570        0.01561914
      39         -0.738376        2.000000        0.75599048        0.03055936        0.03803215        0.02999255        0.02669033        0.02079164        0.01474268        0.02120751        0.01095257
      40         -0.738156        2.000000        0.72449363        0.03506878        0.03506878        0.03506878        0.04169092        0.04169092        0.00596675        0.04169092        0.00596675
      41         -0.737794        2.000000        0.71389236        0.03389175        0.02930987        0.03426929        0.04941444        0.04782723        0.00192484        0.04794805        0.00241213
      42         -0.737794        2.000000        0.71389236        0.03039158        0.03714838        0.02993096        0.04690580        0.04921567        0.00252533        0.04906825        0.00181164
      43         -0.737794        2.000000        0.71389236        0.03318758        0.03101266        0.03327066        0.04886948        0.04814683        0.00205529        0.04817342        0.00228168
      44         -0.737083        2.000000        0.73927609        0.03392662        0.03417297        0.03390998        0.02647783        0.02954254        0.00975978        0.02934868        0.01113867
      45         -0.737083        2.000000        0.73927609        0.03410568        0.03376616        0.03413774        0.03121862        0.02688843        0.01141178        0.02726200        0.00948667
      46         -0.737083        2.000000        0.73927609        0.03397728        0.03407044        0.03396185        0.02767261        0.02893807        0.01017612        0.02875837        0.01072233
      47         -0.735610        2.000000        0.67850972        0.03042069        0.03042069        0.03042069        0.06176007        0.06176007        0.00115365        0.06176007        0.00115365
      48         -0.734149        2.000000        0.70229420        0.03234645        0.04319455        0.03180772        0.04105287        0.04130760        0.01214392        0.04129554        0.00845918
      49         -0.734149        2.000000        0.70229420        0.04077199        0.02488302        0.04169372        0.04146251        0.04108644        0.00759208        0.04110706        0.01301102
      50         -0.734149        2.000000        0.70229420        0.03423028        0.03927116        0.03384728        0.04114063        0.04126197        0.01116865        0.04125340        0.00943445
      51         -0.733122        2.000000        0.69392605        0.03256863        0.03696446        0.03232892        0.04595055        0.04466502        0.00611361        0.04473150        0.00505391
      52         -0.733122        2.000000        0.69392605        0.03826343        0.02447896        0.03911963        0.04248807        0.04654822        0.00391612        0.04631078        0.00725140
      53         -0.733122        2.000000        0.69392605        0.03102995        0.04041859        0.03041347        0.04690845        0.04413383        0.00672155        0.04430479        0.00444597
      54         -0.732431        2.000000        0.68012542        0.03303500        0.03314979        0.03302735        0.04817147        0.05221121        0.00306188        0.05195903        0.00367028
      55         -0.732431        2.000000        0.68012542        0.03318364        0.03282231        0.03320619        0.05897623        0.04631071        0.00432163        0.04705478        0.00241054
      56         -0.732431        2.000000        0.68012542        0.03299351        0.03324004        0.03297860        0.04519402        0.05381979        0.00271474        0.05332791        0.00401743
      57         -0.730907        2.000000        0.70111698        0.03295217        0.02566487        0.06059201        0.02438245        0.03980988        0.01294615        0.02760127        0.02122142
      58         -0.730907        2.000000        0.70111698        0.04652053        0.05380783        0.01888069        0.03681328        0.02138586        0.02122142        0.03359446        0.01294615
      59         -0.730893        2.000000        0.66317569        0.03809176        0.04089154        0.03794838        0.04915956        0.06110811        0.00350972        0.06052600        0.00431290
      60         -0.730893        2.000000        0.66317569        0.04026888        0.03616631        0.04049649        0.06834286        0.05076337        0.00450100        0.05168742        0.00332162
      61         -0.730893        2.000000        0.66317569        0.03857104        0.03987382        0.03848681        0.05329124        0.05892218        0.00372322        0.05858024        0.00409940
      62         -0.730556        2.000000        0.63170215        0.03537518        0.03537518        0.03537518        0.07943905        0.07943905        0.00080837        0.07943905        0.00080837
      63         -0.730426        2.000000        0.68727217        0.03946121        0.03755638        0.03964699        0.03687835        0.03847023        0.01245128        0.03832877        0.01303031
      64         -0.730426        2.000000        0.68727217        0.03693195        0.04308403        0.03664860        0.04108734        0.03618713        0.01365291        0.03640288        0.01182868
      65         -0.730426        2.000000        0.68727217        0.04027142        0.03602417        0.04036898        0.03571166        0.03901999        0.01211820        0.03894570        0.01336339
      66         -0.729635        2.000000        0.64957995        0.03861896        0.03883346        0.03860633        0.05993117        0.06312723        0.00630713        0.06294953        0.00643447
      67         -0.729635        2.000000        0.64957995        0.03889695        0.03822406        0.03893774        0.06850626        0.05846381        0.00657070        0.05903784        0.00617089
      68         -0.729635        2.000000        0.64957995        0.03854285        0.03900123        0.03851468        0.05757049        0.06441688        0.00623456        0.06402055        0.00650703
      69         -0.729301        2.000000        0.62456992        0.03308747        0.03476122        0.03298719        0.07707996        0.07920444        0.00262081        0.07908435        0.00253792
      70         -0.729301        2.000000        0.62456992        0.03438117        0.03192503        0.03452967        0.08047642        0.07735725        0.00251853        0.07753508        0.00264020
      71         -0.729301        2.000000        0.62456992        0.03336724        0.03414962        0.03331902        0.07781238        0.07880706        0.00259875        0.07874932        0.00255997
      72         -0.727466        2.000000        0.65888618        0.04257442        0.04257442        0.04257442        0.04763391        0.04763391        0.01032916        0.04763391        0.01032916
      73         -0.727105        2.000000        0.66175584        0.04019358        0.04019358        0.04019358        0.04502625        0.04502625        0.01425573        0.04502625        0.01425573
      74         -0.726372        2.000000        0.65729153        0.03971834        0.03053116        0.03265758        0.04636329        0.04620714        0.00547421        0.04568863        0.00850042
      75         -0.726372        2.000000        0.65729153        0.02888638        0.03807356        0.03594715        0.04580942        0.04596557        0.00850042        0.04648408        0.00547421
      76         -0.726325        2.000000        0.64901068        0.04244565        0.03233059        0.04318513        0.05625205        0.05161519        0.00658700        0.05193109        0.00852486
      77         -0.726325        2.000000        0.64901068        0.03466915        0.04954540        0.03374681        0.04889821        0.05564707        0.00897330        0.05525306        0.00613855
      78         -0.726325        2.000000        0.64901068        0.04084657        0.03608538        0.04102943        0.05464808        0.05253607        0.00710748        0.05261418        0.00800437
      79         -0.725720        2.000000        0.62265192        0.04012392        0.03609220        0.04048544        0.07206229        0.07032734        0.00421453        0.07047011        0.00485385
      80         -0.725720        2.000000        0.62265192        0.03486246        0.04767248        0.03416662        0.06748908        0.07282273        0.00553268        0.07254793        0.00353570
      81         -0.725720        2.000000        0.62265192        0.04171518        0.03293688        0.04204950        0.07330837        0.06970967        0.00385537        0.06984170        0.00521301
      82         -0.725300        2.000000        0.61131528        0.03677494        0.03759427        0.03672912        0.08468177        0.07358197        0.00231348        0.07416982        0.00165553
      83         -0.725300        2.000000        0.61131528        0.03740901        0.03620851        0.03748080        0.06690264        0.08322603        0.00150158        0.08230489        0.00246743
      84         -0.725300        2.000000        0.61131528        0.03691438        0.03729554        0.03688840        0.08084915        0.07562556        0.00213846        0.07595885        0.00183055
      85         -0.725220        2.000000        0.64784242        0.04031020        0.04031020        0.04031020        0.04940119        0.04940119        0.00976435        0.04940119        0.00976435
      86         -0.724877        2.000000        0.59956314        0.03750880        0.02957435        0.03884215        0.07104839        0.09267903        0.00091323        0.08956705        0.00234058
      87         -0.724877        2.000000        0.59956314        0.03310806        0.04104252        0.03177472        0.09781459        0.07618395        0.00234058        0.07929593        0.00091323
      88         -0.723308        2.000000        0.61983531        0.03753063        0.03469991        0.05679010        0.06531527        0.06106975        0.00696761        0.06477123        0.01172441
      89         -0.723308        2.000000        0.61983531        0.04848313        0.05131385        0.02922366        0.06212223        0.06636775        0.01172441        0.06266627        0.00696761
      90         -0.721992        2.000000        0.64649249        0.04128443        0.05257099        0.04085314        0.04313520        0.03472276        0.02199260        0.03503240        0.01660008
      91         -0.721992        2.000000        0.64649249        0.05009792        0.03362888        0.05098177        0.02953635        0.04199427        0.01533220        0.04135974        0.02326048
      92         -0.721992        2.000000        0.64649249        0.04332621        0.04850870        0.04287366        0.04021881        0.03617333        0.02056422        0.03649822        0.01802846
      93         -0.720720        2.000000        0.59702583        0.04373017        0.04304572        0.04378040        0.08272248        0.07300325        0.00259424        0.07366774        0.00259954
      94         -0.720720        2.000000        0.59702583        0.04284006        0.04500252        0.04271372        0.05683553        0.08711465        0.00260521        0.08544329        0.00258857
      95         -0.720720        2.000000        0.59702583        0.04398607        0.04250805        0.04406218        0.08983546        0.06927558        0.00259122        0.07028244        0.00260256
      96         -0.720254        2.000000        0.59650722        0.04520872        0.04520872        0.04520872        0.07443985        0.07443985        0.00490669        0.07443985        0.00490669
      97         -0.720004        2.000000        0.62914455        0.04331119        0.04440922        0.04326240        0.04259432        0.04334500        0.01541054        0.04331306        0.01566084
      98         -0.720004        2.000000        0.62914455        0.04473173        0.04130353        0.04494755        0.04462722        0.04224195        0.01592998        0.04238322        0.01514141
      99         -0.720004        2.000000        0.62914455        0.04293989        0.04527006        0.04277286        0.04203084        0.04366544        0.01526656        0.04355611        0.01580482
     100         -0.719678        2.000000        0.60470475        0.04745029        0.04041920        0.05239741        0.03827031        0.09256713        0.00322490        0.07014200        0.00654724
     101         -0.719678        2.000000        0.60470475        0.04606098        0.05309207        0.04111386        0.09571598        0.04141917        0.00654724        0.06384429        0.00322490
     102         -0.718921        2.000000        0.59607668        0.04187619        0.04296343        0.04181324        0.06868438        0.07148231        0.00557842        0.07132916        0.00642077
     103         -0.718921        2.000000        0.59607668        0.04271723        0.04112303        0.04281260        0.07316128        0.06905129        0.00661773        0.06928328        0.00538146
     104         -0.718921        2.000000        0.59607668        0.04205944        0.04256640        0.04202703        0.06965019        0.07096225        0.00580264        0.07088341        0.00619656
     105         -0.718541        2.000000        0.60362442        0.03933637        0.04492430        0.03897929        0.06292206        0.06130598        0.00885557        0.06140305        0.00567730
     106         -0.718541        2.000000        0.60362442        0.04363956        0.03544115        0.04415925        0.06034418        0.06271409        0.00493549        0.06257282        0.00959738
     107         -0.718541        2.000000        0.60362442        0.04026403        0.04287451        0.04010142        0.06236485        0.06161102        0.00800824        0.06165522        0.00652463
     108         -0.717729        2.000000        0.59272685        0.04263975        0.04579751        0.04247263        0.06922194        0.06918863        0.00845186        0.06919031        0.00742647
     109         -0.717729        2.000000        0.59272685        0.04673314        0.03683988        0.04733687        0.06913220        0.06923736        0.00632656        0.06923132        0.00955177
     110         -0.717729        2.000000        0.59272685        0.04153700        0.04827250        0.04110039        0.06924674        0.06917488        0.00903908        0.06917926        0.00683926
     111         -0.717249        2.000000        0.60429962        0.04628450        0.04789815        0.04619995        0.05851802        0.05847684        0.01085314        0.05847889        0.01008257
     112         -0.717249        2.000000        0.60429962        0.04753618        0.04517186        0.04767456        0.05845192        0.05851260        0.00990165        0.05850924        0.01103406
     113         -0.717249        2.000000        0.60429962        0.04656192        0.04731259        0.04650809        0.05850382        0.05848432        0.01064878        0.05848562        0.01028694
     114         -0.715190        2.000000        0.58537570        0.04842788        0.04548196        0.04860614        0.06182114        0.07192229        0.00697565        0.07134596        0.00728341
     115         -0.715190        2.000000        0.58537570        0.04615222        0.05047904        0.04588472        0.07797779        0.06312336        0.00735568        0.06398824        0.00690337
     116         -0.715190        2.000000        0.58537570        0.04793588        0.04655499        0.04802512        0.06529046        0.07004374        0.00705725        0.06975519        0.00720180
     117         -0.713732        2.000000        0.58921673        0.04682536        0.04682536        0.04682536        0.05847675        0.05847675        0.01349408        0.05847675        0.01349408
     118         -0.712366        2.000000        0.58181635        0.04788438        0.05037777        0.04773755        0.06259959        0.06355489        0.00962144        0.06350176        0.00840453
     119         -0.712366        2.000000        0.58181635        0.05110114        0.04328783        0.05161073        0.06516491        0.06215347        0.00710047        0.06233785        0.01092550
     120         -0.712366        2.000000        0.58181635        0.04701418        0.05233411        0.04665142        0.06189173        0.06394788        0.01031705        0.06381662        0.00770892
     121         -0.710929        2.000000        0.56659505        0.04479225        0.04479225        0.04479225        0.07006935        0.07006935        0.00496892        0.07006935        0.00496892
     122         -0.710812        2.000000        0.58554732        0.04757440        0.04916288        0.05867997        0.05023721        0.05911982        0.01553740        0.04875463        0.01761650
     123         -0.710812        2.000000        0.58554732        0.05603710        0.05444862        0.04493152        0.05517057        0.04628796        0.01761650        0.05665315        0.01553740
     124         -0.710064        2.000000        0.58169931        0.05494086        0.04098672        0.05623132        0.04656351        0.05384208        0.01430923        0.05322595        0.01943198
     125         -0.710064        2.000000        0.58169931        0.04434615        0.06493289        0.04287986        0.05799667        0.04746739        0.02061105        0.04816748        0.01313016
     126         -0.710064        2.000000        0.58169931        0.05287189        0.04623929        0.05304772        0.04907136        0.05232206        0.01569153        0.05223811        0.01804968
     127         -0.709979        2.000000        0.56377437        0.04961451        0.05570893        0.05131080        0.07274637        0.07388680        0.00813110        0.07432665        0.00690978
     128         -0.709979        2.000000        0.56377437        0.05551384        0.04600421        0.05511618        0.07526280        0.07290007        0.00643667        0.07279696        0.00860420
     129         -0.709979        2.000000        0.56377437        0.05150589        0.05492110        0.05020725        0.07295066        0.07417295        0.00799354        0.07383622        0.00704733
     130         -0.708905        2.000000        0.57655684        0.04792106        0.04792106        0.04792106        0.04953974        0.04953974        0.01872695        0.04953974        0.01872695
     131         -0.708701        2.000000        0.55743710        0.05411658        0.04974616        0.05439593        0.06853259        0.07665135        0.00660961        0.07616359        0.00715057
     132         -0.708701        2.000000        0.55743710        0.04845374        0.06219363        0.04761130        0.09026659        0.06480500        0.00772936        0.06627594        0.00603082
     133         -0.708701        2.000000        0.55743710        0.05568835        0.04631888        0.05625144        0.06254836        0.07989118        0.00630130        0.07890800        0.00745888
     134         -0.707846        2.000000        0.56721102        0.02023517        0.05405584        0.07177288        0.06096109        0.07503659        0.01587265        0.03409188        0.01366147
     135         -0.707846        2.000000        0.56721102        0.07714076        0.04332008        0.02560305        0.05243195        0.03835646        0.01366147        0.07930116        0.01587265
     136         -0.707161        2.000000        0.55678673        0.05397216        0.05253484        0.05704147        0.07300693        0.06709073        0.00913439        0.07112005        0.00989308
     137         -0.707161        2.000000        0.55678673        0.05506016        0.05649747        0.05199085        0.06780488        0.07372108        0.00989308        0.06969176        0.00913439
     138         -0.705284        2.000000        0.55816835        0.05349340        0.04364656        0.05418821        0.05938415        0.05626015        0.00992005        0.05646606        0.01369284
     139         -0.705284        2.000000        0.55816835        0.04593409        0.06040135        0.04499274        0.05441890        0.05898521        0.01457063        0.05870624        0.00904225
     140         -0.705284        2.000000        0.55816835        0.05190068        0.04728027        0.05214723        0.05830730        0.05686499        0.01092865        0.05693806        0.01268424
     141         -0.702368        2.000000        0.54581529        0.05250995        0.05308857        0.05243909        0.07026276        0.06122629        0.00738215        0.06221217        0.00845259
     142         -0.702368        2.000000        0.54581529        0.05327937        0.05143757        0.05332067        0.04729166        0.07349209        0.00954072        0.07291746        0.00629402
     143         -0.702368        2.000000        0.54581529        0.05224829        0.05351147        0.05227785        0.07614679        0.05898283        0.00682924        0.05857159        0.00900550
     144         -0.700477        2.000000        0.54332489        0.05212300        0.06970010        0.05106573        0.07439091        0.05101278        0.01989216        0.05233921        0.01507301