# Projected DOS for atomic kind H at iteration step i = 0, E(Fermi) =    -0.445981 a.u.
#     MO Eigenvalue [a.u.]      Occupation                 s
       1         -0.757431        2.000000        0.01106380
       2         -0.755590        2.000000        0.01745988
       3         -0.755590        2.000000        0.01745988
       4         -0.755590        2.000000        0.01745988
       5         -0.752797        2.000000        0.02245724
       6         -0.752797        2.000000        0.02245724
       7         -0.752785        2.000000        0.02652447
       8         -0.752785        2.000000        0.02652447
       9         -0.752785        2.000000        0.02652447
      10         -0.750832        2.000000        0.02248738
      11         -0.749808        2.000000        0.03730197
      12         -0.749323        2.000000        0.03190483
      13         -0.749323        2.000000        0.03190483
      14         -0.749323        2.000000        0.03190483
      15         -0.748319        2.000000        0.03302158
      16         -0.748319        2.000000        0.03302158
      17         -0.748319        2.000000        0.03302158
      18         -0.745959        2.000000        0.03045923
      19         -0.745959        2.000000        0.03045923
      20         -0.745959        2.000000        0.03045923
      21         -0.744612        2.000000        0.03538460
      22         -0.744580        2.000000        0.04383134
      23         -0.744580        2.000000        0.04383134
      24         -0.744580        2.000000        0.04383134
      25         -0.744338        2.000000        0.04431262
      26         -0.744338        2.000000        0.04431262
      27         -0.744338        2.000000        0.04431262
      28         -0.743065        2.000000        0.03775257
      29         -0.743065        2.000000        0.03775257
      30         -0.740207        2.000000        0.05834441
      31         -0.740207        2.000000        0.05834441
      32         -0.739829        2.000000        0.04067466
      33         -0.739829        2.000000        0.04067466
      34         -0.739829        2.000000        0.04067466
      35         -0.739598        2.000000        0.03993435
      36         -0.739598        2.000000        0.03993435
      37         -0.738376        2.000000        0.05104073
      38         -0.738376        2.000000        0.05104073
      39         -0.738376        2.000000        0.05104073
      40         -0.738156        2.000000        0.03329375
      41         -0.737794        2.000000        0.03911004
      42         -0.737794        2.000000        0.03911004
      43         -0.737794        2.000000        0.03911004
      44         -0.737083        2.000000        0.05244684
      45         -0.737083        2.000000        0.05244684
      46         -0.737083        2.000000        0.05244684
      47         -0.735610        2.000000        0.04264071
      48         -0.734149        2.000000        0.04609798
      49         -0.734149        2.000000        0.04609798
      50         -0.734149        2.000000        0.04609798
      51         -0.733122        2.000000        0.05769735
      52         -0.733122        2.000000        0.05769735
      53         -0.733122        2.000000        0.05769735
      54         -0.732431        2.000000        0.06158855
      55         -0.732431        2.000000        0.06158855
      56         -0.732431        2.000000        0.06158855
      57         -0.730907        2.000000        0.05371279
      58         -0.730907        2.000000        0.05371279
      59         -0.730893        2.000000        0.04127635
      60         -0.730893        2.000000        0.04127635
      61         -0.730893        2.000000        0.04127635
      62         -0.730556        2.000000        0.02223842
      63         -0.730426        2.000000        0.05690431
      64         -0.730426        2.000000        0.05690431
      65         -0.730426        2.000000        0.05690431
      66         -0.729635        2.000000        0.03561178
      67         -0.729635        2.000000        0.03561178
      68         -0.729635        2.000000        0.03561178
      69         -0.729301        2.000000        0.03406673
      70         -0.729301        2.000000        0.03406673
      71         -0.729301        2.000000        0.03406673
      72         -0.727466        2.000000        0.04983051
      73         -0.727105        2.000000        0.05407320
      74         -0.726372        2.000000        0.08756768
      75         -0.726372        2.000000        0.08756768
      76         -0.726325        2.000000        0.05811776
      77         -0.726325        2.000000        0.05811776
      78         -0.726325        2.000000        0.05811776
      79         -0.725720        2.000000        0.03871839
      80         -0.725720        2.000000        0.03871839
      81         -0.725720        2.000000        0.03871839
      82         -0.725300        2.000000        0.04118383
      83         -0.725300        2.000000        0.04118383
      84         -0.725300        2.000000        0.04118383
      85         -0.725220        2.000000        0.06349472
      86         -0.724877        2.000000        0.03796328
      87         -0.724877        2.000000        0.03796328
      88         -0.723308        2.000000        0.04129578
      89         -0.723308        2.000000        0.04129578
      90         -0.721992        2.000000        0.06731591
      91         -0.721992        2.000000        0.06731591
      92         -0.721992        2.000000        0.06731591
      93         -0.720720        2.000000        0.03783063
      94         -0.720720        2.000000        0.03783063
      95         -0.720720        2.000000        0.03783063
      96         -0.720254        2.000000        0.03473369
      97         -0.720004        2.000000        0.07954887
      98         -0.720004        2.000000        0.07954887
      99         -0.720004        2.000000        0.07954887
     100         -0.719678        2.000000        0.04427676
     101         -0.719678        2.000000        0.04427676
     102         -0.718921        2.000000        0.05377542
     103         -0.718921        2.000000        0.05377542
     104         -0.718921        2.000000        0.05377542
     105         -0.718541        2.000000        0.07297166
     106         -0.718541        2.000000        0.07297166
     107         -0.718541        2.000000        0.07297166
     108         -0.717729        2.000000        0.05288405
     109         -0.717729        2.000000        0.05288405
     110         -0.717729        2.000000        0.05288405
     111         -0.717249        2.000000        0.05890832
     112         -0.717249        2.000000        0.05890832
     113         -0.717249        2.000000        0.05890832
     114         -0.715190        2.000000        0.05275987
     115         -0.715190        2.000000        0.05275987
     116         -0.715190        2.000000        0.05275987
     117         -0.713732        2.000000        0.06788879
     118         -0.712366        2.000000        0.06450175
     119         -0.712366        2.000000        0.06450175
     120         -0.712366        2.000000        0.06450175
     121         -0.710929        2.000000        0.07888229
     122         -0.710812        2.000000        0.06776987
     123         -0.710812        2.000000        0.06776987
     124         -0.710064        2.000000        0.07876904
     125         -0.710064        2.000000        0.07876904
     126         -0.710064        2.000000        0.07876904
     127         -0.709979        2.000000        0.04359069
     128         -0.709979        2.000000        0.04359069
     129         -0.709979        2.000000        0.04359069
     130         -0.708905        2.000000        0.09360686
     131         -0.708701        2.000000        0.04919652
     132         -0.708701        2.000000        0.04919652
     133         -0.708701        2.000000        0.04919652
     134         -0.707846        2.000000        0.08710140
     135         -0.707846        2.000000        0.08710140
     136         -0.707161        2.000000        0.04941960
     137         -0.707161        2.000000        0.04941960
     138         -0.705284        2.000000        0.09478023
     139         -0.705284        2.000000        0.09478023
     140         -0.705284        2.000000        0.09478023
     141         -0.702368        2.000000        0.08661115
     142         -0.702368        2.000000        0.08661115
     143         -0.702368        2.000000        0.08661115
     144         -0.700477        2.000000        0.07107821
     145         -0.700477        2.000000        0.07107821
     146         -0.700477        2.000000        0.07107821
     147         -0.699597        2.000000        0.05064442
     148         -0.699597        2.000000        0.05064442
     149         -0.698459        2.000000        0.04918320
     150         -0.697721        2.000000        0.09931256
     151         -0.697721        2.000000        0.09931256
     152         -0.697721        2.000000        0.09931256
     153         -0.697273        2.000000        0.08205039
     154         -0.697273        2.000000        0.08205039
     155         -0.697273        2.000000        0.08205039
     156         -0.694515        2.000000        0.08487980
     157         -0.694515        2.000000        0.08487980
     158         -0.694515        2.000000        0.08487980
     159         -0.691175        2.000000        0.11568234
     160         -0.691175        2.000000        0.11568234
     161         -0.691175        2.000000        0.11568234
     162         -0.685200        2.000000        0.13779981
     163         -0.685200        2.000000        0.13779981
     164         -0.685200        2.000000        0.13779981
     165         -0.683932        2.000000        0.11751693
     166         -0.683932        2.000000        0.11751693
     167         -0.683353        2.000000        0.11292023
     168         -0.682498        2.000000        0.10081073
     169         -0.676511        2.000000        0.12715283
     170         -0.676511        2.000000        0.12715283
     171         -0.676511        2.000000        0.12715283
     172         -0.670131        2.000000        0.11644283
     173         -0.670131        2.000000        0.11644283
     174         -0.670131        2.000000        0.11644283
     175         -0.667976        2.000000        0.13320601
     176         -0.667976        2.000000        0.13320601
     177         -0.667976        2.000000        0.13320601
     178         -0.666064        2.000000        0.11858621
     179         -0.666064        2.000000        0.11858621
     180         -0.666064        2.000000        0.11858621
     181         -0.661692        2.000000        0.14001497
     182         -0.661692        2.000000        0.14001497
     183         -0.661692        2.000000        0.14001497
     184         -0.661465        2.000000        0.11793931
     185         -0.661113        2.000000        0.12795818
     186         -0.661113        2.000000        0.12795818
     187         -0.661113        2.000000        0.12795818
     188         -0.660577        2.000000        0.12265433
     189         -0.660577        2.000000        0.12265433
     190         -0.660441        2.000000        0.15106708
     191         -0.660441        2.000000        0.15106708
     192         -0.660441        2.000000        0.15106708
     193         -0.655718        2.000000        0.14579727
     194         -0.655718        2.000000        0.14579727
     195         -0.655035        2.000000        0.13854731
     196         -0.653835        2.000000        0.16982099
     197         -0.653024        2.000000        0.17353910
     198         -0.653024        2.000000        0.17353910
     199         -0.653024        2.000000        0.17353910
     200         -0.650381        2.000000        0.11474870
     201         -0.650381        2.000000        0.11474870
     202         -0.649849        2.000000        0.19221687
     203         -0.649849        2.000000        0.19221687
     204         -0.649849        2.000000        0.19221687
     205         -0.649002        2.000000        0.11037394
     206         -0.649002        2.000000        0.11037394
     207         -0.649002        2.000000        0.11037394
     208         -0.645979        2.000000        0.12344013
     209         -0.645979        2.000000        0.12344013
     210         -0.645979        2.000000        0.12344013
     211         -0.645975        2.000000        0.15805928
     212         -0.645967        2.000000        0.11522679
     213         -0.645967        2.000000        0.11522679
     214         -0.643629        2.000000        0.19350979
     215         -0.643629        2.000000        0.19350979
     216         -0.643629        2.000000        0.19350979
     217         -0.642697        2.000000        0.18281766
     218         -0.642697        2.000000        0.18281766
     219         -0.642697        2.000000        0.18281766
     220         -0.639820        2.000000        0.14945888
     221         -0.639820        2.000000        0.14945888
     222         -0.639820        2.000000        0.14945888
     223         -0.639493        2.000000        0.16870017
     224         -0.639493        2.000000        0.16870017
     225         -0.639493        2.000000        0.16870017
     226         -0.638036        2.000000        0.23778520
     227         -0.638036        2.000000        0.23778520
     228         -0.636661        2.000000        0.16638576
     229         -0.636661        2.000000        0.16638576
     230         -0.636661        2.000000        0.16638576
     231         -0.635455        2.000000        0.20174971
     232         -0.635455        2.000000        0.20174971
     233         -0.634274        2.000000        0.11674662
     234         -0.634274        2.000000        0.11674662
     235         -0.634274        2.000000        0.11674662
     236         -0.633785        2.000000        0.16878622
     237         -0.633785        2.000000        0.16878622
     238         -0.633785        2.000000        0.16878622
     239         -0.633624        2.000000        0.23999918
     240         -0.632239        2.000000        0.14730937
     241         -0.632239        2.000000        0.14730937
     242         -0.632239        2.000000        0.14730937
     243         -0.631719        2.000000        0.10738962
     244         -0.631191        2.000000        0.15682832
     245         -0.631191        2.000000        0.15682832
     246         -0.630289        2.000000        0.23516678
     247         -0.630289        2.000000        0.23516678
     248         -0.630289        2.000000        0.23516678
     249         -0.628911        2.000000        0.13246095
     250         -0.628911        2.000000        0.13246095
     251         -0.628911        2.000000        0.13246095
     252         -0.625162        2.000000        0.15248396
     253         -0.625162        2.000000        0.15248396
     254         -0.625162        2.000000        0.15248396
     255         -0.624740        2.000000        0.14668901
     256         -0.624740        2.000000        0.14668901
     257         -0.624740        2.000000        0.14668901
     258         -0.623881        2.000000        0.08163102
     259         -0.623881        2.000000        0.08163102
     260         -0.618630        2.000000        0.15111901
     261         -0.618630        2.000000        0.15111901
     262         -0.618630        2.000000        0.15111901
     263         -0.617475        2.000000        0.11173566
     264         -0.617475        2.000000        0.11173566
     265         -0.617475        2.000000        0.11173566
     266         -0.617401        2.000000        0.09494897
     267         -0.616738        2.000000        0.12767304
     268         -0.616738        2.000000        0.12767304
     269         -0.616738        2.000000        0.12767304
     270         -0.616641        2.000000        0.11401832
     271         -0.616052        2.000000        0.17783877
     272         -0.615296        2.000000        0.09681401
     273         -0.615296        2.000000        0.09681401
     274         -0.615296        2.000000        0.09681401
     275         -0.614488        2.000000        0.10479377
     276         -0.613541        2.000000        0.12256766
     277         -0.613541        2.000000        0.12256766
     278         -0.613541        2.000000        0.12256766
     279         -0.611260        2.000000        0.14136089
     280         -0.611260        2.000000        0.14136089
     281         -0.609576        2.000000        0.13131151
     282         -0.609576        2.000000        0.13131151
     283         -0.609576        2.000000        0.13131151
     284         -0.603440        2.000000        0.14696252
     285         -0.603440        2.000000        0.14696252
     286         -0.600731        2.000000        0.17564908
     287         -0.600072        2.000000        0.17272009
     288         -0.600072        2.000000        0.17272009
     289         -0.600072        2.000000        0.17272009
     290         -0.599383        2.000000        0.12094497
     291         -0.599383        2.000000        0.12094497
     292         -0.599383        2.000000        0.12094497
     293         -0.598270        2.000000        0.12915037
     294         -0.598270        2.000000        0.12915037
     295         -0.598270        2.000000        0.12915037
     296         -0.592492        2.000000        0.13687053
     297         -0.592492        2.000000        0.13687053
     298         -0.592492        2.000000        0.13687053
     299         -0.592332        2.000000        0.12145908
     300         -0.592332        2.000000        0.12145908
     301         -0.585421        2.000000        0.13761620
     302         -0.585421        2.000000        0.13761620
     303         -0.585421        2.000000        0.13761620
     304         -0.579329        2.000000        0.13442006
     305         -0.579329        2.000000        0.13442006
     306         -0.579329        2.000000        0.13442006
     307         -0.577136        2.000000        0.14613028
     308         -0.577136        2.000000        0.14613028
     309         -0.577136        2.000000        0.14613028
     310         -0.575352        2.000000        0.13338274
     311         -0.575352        2.000000        0.13338274
     312         -0.571295        2.000000        0.15280756
     313         -0.568623        2.000000        0.13717570
     314         -0.563200        2.000000        0.14408897
     315         -0.563200        2.000000        0.14408897
     316         -0.563200        2.000000        0.14408897
     317         -0.554638        2.000000        0.15921018
     318         -0.554638        2.000000        0.15921018
     319         -0.554638        2.000000        0.15921018
     320         -0.552582        2.000000        0.16285737
     321         -0.549096        2.000000        0.48710262
     322         -0.549096        2.000000        0.48710262
     323         -0.549092        2.000000        0.48700123
     324         -0.549092        2.000000        0.48700123
     325         -0.549092        2.000000        0.48700123
     326         -0.549084        2.000000        0.48684290
     327         -0.547266        2.000000        0.42205452
     328         -0.547266        2.000000        0.42205452
     329         -0.547266        2.000000        0.42205452
     330         -0.547214        2.000000        0.45402143
     331         -0.547214        2.000000        0.45402143
     332         -0.547214        2.000000        0.45402143
     333         -0.545816        2.000000        0.23751952
     334         -0.545816        2.000000        0.23751952
     335         -0.545816        2.000000        0.23751952
     336         -0.544596        2.000000        0.33044105
     337         -0.544596        2.000000        0.33044105
     338         -0.544428        2.000000        0.47571507
     339         -0.544428        2.000000        0.47571507
     340         -0.544428        2.000000        0.47571507
     341         -0.544392        2.000000        0.46883740
     342         -0.544392        2.000000        0.46883740
     343         -0.544392        2.000000        0.46883740
     344         -0.544048        2.000000        0.34692241
     345         -0.544048        2.000000        0.34692241
     346         -0.544048        2.000000        0.34692241
     347         -0.543355        2.000000        0.34882784
     348         -0.543329        2.000000        0.34764636
     349         -0.543329        2.000000        0.34764636
     350         -0.543329        2.000000        0.34764636
     351         -0.543077        2.000000        0.32362289
     352         -0.543077        2.000000        0.32362289
     353         -0.543077        2.000000        0.32362289
     354         -0.540957        2.000000        0.32114687
     355         -0.540957        2.000000        0.32114687
     356         -0.539294        2.000000        0.35659414
     357         -0.539294        2.000000        0.35659414
     358         -0.539294        2.000000        0.35659414
     359         -0.539247        2.000000        0.33945332
     360         -0.539247        2.000000        0.33945332
     361         -0.539198        2.000000        0.36502197
     362         -0.539198        2.000000        0.36502197
     363         -0.539198        2.000000        0.36502197
     364         -0.538531        2.000000        0.49416225
     365         -0.538494        2.000000        0.47590650
     366         -0.538494        2.000000        0.47590650
     367         -0.538494        2.000000        0.47590650
     368         -0.538215        2.000000        0.47527327
     369         -0.538215        2.000000        0.47527327
     370         -0.538008        2.000000        0.28749872
     371         -0.537946        2.000000        0.28953251
     372         -0.537946        2.000000        0.28953251
     373         -0.537946        2.000000        0.28953251
     374         -0.537492        2.000000        0.35676020
     375         -0.537492        2.000000        0.35676020
     376         -0.537492        2.000000        0.35676020
     377         -0.536272        2.000000        0.29690732
     378         -0.536272        2.000000        0.29690732
     379         -0.536272        2.000000        0.29690732
     380         -0.535450        2.000000        0.29613216
     381         -0.535450        2.000000        0.29613216
     382         -0.535450        2.000000        0.29613216
     383         -0.535222        2.000000        0.31471773
     384         -0.535222        2.000000        0.31471773
     385         -0.535222        2.000000        0.31471773
     386         -0.534658        2.000000        0.26591211
     387         -0.534650        2.000000        0.32888105
     388         -0.534650        2.000000        0.32888105
     389         -0.534511        2.000000        0.33405801
     390         -0.533984        2.000000        0.34225657
     391         -0.533984        2.000000        0.34225657
     392         -0.533984        2.000000        0.34225657
     393         -0.533180        2.000000        0.29742623
     394         -0.533180        2.000000        0.29742623
     395         -0.533180        2.000000        0.29742623
     396         -0.531460        2.000000        0.29562588
     397         -0.531460        2.000000        0.29562588
     398         -0.531460        2.000000        0.29562588
     399         -0.530962        2.000000        0.29853372
     400         -0.530962        2.000000        0.29853372
     401         -0.530962        2.000000        0.29853372
     402         -0.530360        2.000000        0.26537737
     403         -0.530360        2.000000        0.26537737
     404         -0.529211        2.000000        0.30558604
     405         -0.529042        2.000000        0.29154810
     406         -0.529042        2.000000        0.29154810
     407         -0.529042        2.000000        0.29154810
     408         -0.527924        2.000000        0.27678907
     409         -0.527924        2.000000        0.27678907
     410         -0.527924        2.000000        0.27678907
     411         -0.526990        2.000000        0.27328547
     412         -0.526871        2.000000        0.20587038
     413         -0.526871        2.000000        0.20587038
     414         -0.526106        2.000000        0.28115606
     415         -0.526106        2.000000        0.28115606
     416         -0.526106        2.000000        0.28115606
     417         -0.525823        2.000000        0.25270152
     418         -0.525823        2.000000        0.25270152
     419         -0.525823        2.000000        0.25270152
     420         -0.525085        2.000000        0.25216733
     421         -0.525085        2.000000        0.25216733
     422         -0.525085        2.000000        0.25216733
     423         -0.524965        2.000000        0.28308008
     424         -0.524709        2.000000        0.22816924
     425         -0.524709        2.000000        0.22816924
     426         -0.522608        2.000000        0.24353450
     427         -0.522608        2.000000        0.24353450
     428         -0.522071        2.000000        0.24949524
     429         -0.522071        2.000000        0.24949524
     430         -0.522071        2.000000        0.24949524
     431         -0.521857        2.000000        0.19106625
     432         -0.521857        2.000000        0.19106625
     433         -0.521857        2.000000        0.19106625
     434         -0.521392        2.000000        0.13132882
     435         -0.521392        2.000000        0.13132882
     436         -0.521392        2.000000        0.13132882
     437         -0.519327        2.000000        0.04696428
     438         -0.519327        2.000000        0.04696428
     439         -0.519327        2.000000        0.04696428
     440         -0.519181        2.000000        0.09700839
     441         -0.519181        2.000000        0.09700839
     442         -0.518850        2.000000        0.08569155
     443         -0.518850        2.000000        0.08569155
     444         -0.518850        2.000000        0.08569155
     445         -0.518691        2.000000        0.17383969
     446         -0.518691        2.000000        0.17383969
     447         -0.518691        2.000000        0.17383969
     448         -0.516985        2.000000        0.15217679
     449         -0.516334        2.000000        0.10791311
     450         -0.515761        2.000000        0.20216738
     451         -0.515761        2.000000        0.20216738
     452         -0.515761        2.000000        0.20216738
     453         -0.514959        2.000000        0.05791601
     454         -0.513838        2.000000        0.11754908
     455         -0.513838        2.000000        0.11754908
     456         -0.513838        2.000000        0.11754908
     457         -0.512895        2.000000        0.11303067
     458         -0.512895        2.000000        0.11303067
     459         -0.511804        2.000000        0.17393350
     460         -0.511804        2.000000        0.17393350
     461         -0.511804        2.000000        0.17393350
     462         -0.511248        2.000000        0.06829641
     463         -0.511248        2.000000        0.06829641
     464         -0.511248        2.000000        0.06829641
     465         -0.511218        2.000000        0.24067123
     466         -0.511153        2.000000        0.09417121
     467         -0.511153        2.000000        0.09417121
     468         -0.511153        2.000000        0.09417121
     469         -0.510665        2.000000        0.12094691
     470         -0.510665        2.000000        0.12094691
     471         -0.510665        2.000000        0.12094691
     472         -0.510283        2.000000        0.05023665
     473         -0.510116        2.000000        0.06160466
     474         -0.510116        2.000000        0.06160466
     475         -0.510116        2.000000        0.06160466
     476         -0.509475        2.000000        0.06054511
     477         -0.509475        2.000000        0.06054511
     478         -0.508794        2.000000        0.09086268
     479         -0.508794        2.000000        0.09086268
     480         -0.508794        2.000000        0.09086268
     481         -0.506682        2.000000        0.06220398
     482         -0.506682        2.000000        0.06220398
     483         -0.506682        2.000000        0.06220398
     484         -0.506428        2.000000        0.10095810
     485         -0.506428        2.000000        0.10095810
     486         -0.506428        2.000000        0.10095810
     487         -0.506233        2.000000        0.06177030
     488         -0.506233        2.000000        0.06177030
     489         -0.505386        2.000000        0.06775153