# Projected DOS for list 1 of 336 atoms, at iteration step i = 0, E(Fermi) =    -0.445981 a.u.
#     MO Eigenvalue [a.u.]      Occupation                 s                py                pz                px               d-2               d-1                d0               d+1               d+2
       1         -0.757431        2.000000        0.20130291        0.00284984        0.00284984        0.00284984        0.00076303        0.00076303        0.00019817        0.00076303        0.00019817
       2         -0.755590        2.000000        0.29201371        0.00398078        0.00416745        0.00398788        0.00165966        0.00159409        0.00064443        0.00159150        0.00046569
       3         -0.755590        2.000000        0.29201371        0.00413049        0.00386375        0.00414186        0.00154877        0.00165032        0.00042211        0.00164617        0.00068801
       4         -0.755590        2.000000        0.29201371        0.00402483        0.00410491        0.00400636        0.00163682        0.00160084        0.00059865        0.00160759        0.00051147
       5         -0.752797        2.000000        0.27719117        0.00559635        0.00545408        0.00780614        0.00288914        0.00446900        0.00097385        0.00298470        0.00159317
       6         -0.752797        2.000000        0.27719117        0.00697469        0.00711696        0.00476491        0.00400609        0.00242623        0.00159317        0.00391053        0.00097385
       7         -0.752785        2.000000        0.44707230        0.00548683        0.00497187        0.00556460        0.00349743        0.00318585        0.00103587        0.00322673        0.00123239
       8         -0.752785        2.000000        0.44707230        0.00511069        0.00587332        0.00503929        0.00302357        0.00346199        0.00127577        0.00342445        0.00099250
       9         -0.752785        2.000000        0.44707230        0.00542578        0.00517812        0.00541941        0.00338901        0.00326217        0.00109076        0.00325882        0.00117750
      10         -0.750832        2.000000        0.26847779        0.00197956        0.00197956        0.00197956        0.00349590        0.00349590        0.00026767        0.00349590        0.00026767
      11         -0.749808        2.000000        0.64684764        0.00708657        0.00708657        0.00708657        0.00658933        0.00658933        0.00127187        0.00658933        0.00127187
      12         -0.749323        2.000000        0.41870942        0.00778479        0.00850733        0.00821290        0.00554934        0.00523593        0.00236425        0.00478021        0.00211380
      13         -0.749323        2.000000        0.41870942        0.00868936        0.00683819        0.00897747        0.00377256        0.00604981        0.00174764        0.00574312        0.00273041
      14         -0.749323        2.000000        0.41870942        0.00803087        0.00915950        0.00731464        0.00624358        0.00427974        0.00260518        0.00504216        0.00187287
      15         -0.748319        2.000000        0.40898340        0.00904622        0.00795650        0.00910723        0.00621119        0.00701209        0.00161931        0.00696963        0.00175985
      16         -0.748319        2.000000        0.40898340        0.00819494        0.00980098        0.00811403        0.00749494        0.00632083        0.00179286        0.00637714        0.00158629
      17         -0.748319        2.000000        0.40898340        0.00886879        0.00835246        0.00888869        0.00648678        0.00685999        0.00165656        0.00684614        0.00172259
      18         -0.745959        2.000000        0.31432802        0.00298389        0.00343933        0.00296395        0.00723395        0.00782374        0.00078668        0.00779900        0.00054292
      19         -0.745959        2.000000        0.31432802        0.00333835        0.00267276        0.00337607        0.00818501        0.00731244        0.00048556        0.00735923        0.00084404
      20         -0.745959        2.000000        0.31432802        0.00306493        0.00327509        0.00304716        0.00743772        0.00772051        0.00072216        0.00769846        0.00060744
      21         -0.744612        2.000000        0.42706619        0.01268196        0.01268196        0.01268196        0.00963337        0.00963337        0.00308368        0.00963337        0.00308368
      22         -0.744580        2.000000        0.57248369        0.01196875        0.01339442        0.00874112        0.01143883        0.01287242        0.00127474        0.01187805        0.00127529
      23         -0.744580        2.000000        0.57248369        0.00986715        0.00923578        0.01500137        0.01272003        0.01094376        0.00127531        0.01252552        0.00127472
      24         -0.744580        2.000000        0.57248369        0.01226840        0.01147409        0.01036181        0.01203045        0.01237312        0.00127500        0.01178574        0.00127503
      25         -0.744338        2.000000        0.50337091        0.01111702        0.00969719        0.01129059        0.00695348        0.00751169        0.00307290        0.00745089        0.00321574
      26         -0.744338        2.000000        0.50337091        0.00927158        0.01380279        0.00903042        0.00839179        0.00671989        0.00336484        0.00680437        0.00292381
      27         -0.744338        2.000000        0.50337091        0.01171619        0.00860481        0.01178379        0.00657079        0.00768448        0.00299523        0.00766079        0.00329342
      28         -0.743065        2.000000        0.34362891        0.01162434        0.01153399        0.01101250        0.01078659        0.01042317        0.00315355        0.01084956        0.00249278
      29         -0.743065        2.000000        0.34362891        0.01115621        0.01124656        0.01176805        0.01058629        0.01094971        0.00249278        0.01052332        0.00315355
      30         -0.740207        2.000000        0.63709866        0.00984011        0.01025152        0.01811665        0.00984907        0.01994780        0.00169033        0.00932082        0.00219017
      31         -0.740207        2.000000        0.63709866        0.01563208        0.01522066        0.00735554        0.01622939        0.00613066        0.00219017        0.01675764        0.00169033
      32         -0.739829        2.000000        0.39219188        0.00813987        0.00752962        0.00821727        0.01427978        0.01269013        0.00121427        0.01286907        0.00128426
      33         -0.739829        2.000000        0.39219188        0.00733461        0.00931337        0.00723878        0.01015631        0.01495211        0.00135855        0.01473056        0.00113998
      34         -0.739829        2.000000        0.39219188        0.00841228        0.00704377        0.00843070        0.01540289        0.01219675        0.00117497        0.01223935        0.00132355
      35         -0.739598        2.000000        0.34320187        0.00591877        0.00558141        0.01017583        0.00872033        0.01376870        0.00107456        0.00909102        0.00129897
      36         -0.739598        2.000000        0.34320187        0.00853191        0.00886926        0.00427484        0.01233303        0.00728467        0.00129897        0.01196235        0.00107456
      37         -0.738376        2.000000        0.49573376        0.01414897        0.01576399        0.01409013        0.01289518        0.01114496        0.00428591        0.01120649        0.00382184
      38         -0.738376        2.000000        0.49573376        0.01624169        0.01120104        0.01656037        0.00812408        0.01372788        0.00332015        0.01339467        0.00478759
      39         -0.738376        2.000000        0.49573376        0.01361243        0.01703807        0.01335260        0.01422737        0.01037379        0.00455556        0.01064547        0.00355218
      40         -0.738156        2.000000        0.27785358        0.00620214        0.00620214        0.00620214        0.01422793        0.01422793        0.00061256        0.01422793        0.00061256
      41         -0.737794        2.000000        0.43019349        0.01675104        0.01319773        0.01704383        0.02065259        0.01996936        0.00097584        0.02002137        0.00099521
      42         -0.737794        2.000000        0.43019349        0.01403661        0.01927660        0.01367939        0.01957272        0.02056702        0.00099971        0.02050357        0.00097134
      43         -0.737794        2.000000        0.43019349        0.01620495        0.01451827        0.01626938        0.02041800        0.02010693        0.00098102        0.02011838        0.00099002
      44         -0.737083        2.000000        0.46746194        0.01437970        0.01418229        0.01439303        0.01336031        0.01311992        0.00345600        0.01313513        0.00421584
      45         -0.737083        2.000000        0.46746194        0.01423621        0.01450828        0.01421053        0.01298846        0.01332810        0.00436634        0.01329880        0.00330550
      46         -0.737083        2.000000        0.46746194        0.01433911        0.01426445        0.01435146        0.01326659        0.01316734        0.00368542        0.01318143        0.00398642
      47         -0.735610        2.000000        0.33257300        0.00959980        0.00959980        0.00959980        0.01988754        0.01988754        0.00063492        0.01988754        0.00063492
      48         -0.734149        2.000000        0.32095214        0.00802088        0.00874702        0.00798481        0.01415650        0.01359636        0.00253465        0.01362286        0.00167450
      49         -0.734149        2.000000        0.32095214        0.00858486        0.00752129        0.00864656        0.01325572        0.01408267        0.00147209        0.01403732        0.00273707
      50         -0.734149        2.000000        0.32095214        0.00814697        0.00848440        0.00812134        0.01396350        0.01369669        0.00230699        0.01371553        0.00190216
      51         -0.733122        2.000000        0.57117015        0.01935564        0.02236486        0.01919154        0.02311521        0.02231180        0.00273459        0.02235335        0.00243157
      52         -0.733122        2.000000        0.57117015        0.02325409        0.01381774        0.02384021        0.02095129        0.02348873        0.00210621        0.02334034        0.00305994
      53         -0.733122        2.000000        0.57117015        0.01830231        0.02472943        0.01788029        0.02371386        0.02197983        0.00290843        0.02208667        0.00225773
      54         -0.732431        2.000000        0.55363643        0.01900167        0.01927175        0.01898369        0.02306314        0.02582877        0.00189103        0.02565613        0.00221191
      55         -0.732431        2.000000        0.55363643        0.01935138        0.01850129        0.01940444        0.03046013        0.02178926        0.00255544        0.02229865        0.00154750
      56         -0.732431        2.000000        0.55363643        0.01890406        0.01948407        0.01886898        0.02102477        0.02693001        0.00170794        0.02659326        0.00239500
      57         -0.730907        2.000000        0.49049476        0.01863008        0.01551024        0.03046326        0.01559222        0.02459339        0.00410291        0.01747025        0.00584083
      58         -0.730907        2.000000        0.49049476        0.02443897        0.02755881        0.01260580        0.02284502        0.01384385        0.00584083        0.02096699        0.00410291
      59         -0.730893        2.000000        0.31105410        0.01006530        0.00901408        0.01011913        0.01741764        0.02052715        0.00084671        0.02037566        0.00089030
      60         -0.730893        2.000000        0.31105410        0.00924786        0.01078824        0.00916240        0.02240994        0.01783502        0.00090050        0.01807550        0.00083650
      61         -0.730893        2.000000        0.31105410        0.00988534        0.00939619        0.00991697        0.01849288        0.01995828        0.00085829        0.01986930        0.00087871
      62         -0.730556        2.000000        0.26894149        0.01521494        0.01521494        0.01521494        0.02311888        0.02311888        0.00032777        0.02311888        0.00032777
      63         -0.730426        2.000000        0.44371004        0.01590093        0.01412472        0.01607416        0.01407240        0.01544953        0.00401091        0.01532715        0.00386255
      64         -0.730426        2.000000        0.44371003        0.01354246        0.01927911        0.01327825        0.01771356        0.01347443        0.00370303        0.01366108        0.00417044
      65         -0.730426        2.000000        0.44371003        0.01665643        0.01269598        0.01674741        0.01306311        0.01592512        0.00409626        0.01586085        0.00377721
      66         -0.729635        2.000000        0.24183361        0.01012562        0.00994861        0.01013605        0.01525687        0.01620927        0.00177240        0.01615632        0.00177602
      67         -0.729635        2.000000        0.24183361        0.00989622        0.01045150        0.00986256        0.01781218        0.01481961        0.00177988        0.01499067        0.00176854
      68         -0.729635        2.000000        0.24183361        0.01018843        0.00981017        0.01021168        0.01455341        0.01659358        0.00177035        0.01647548        0.00177808
      69         -0.729301        2.000000        0.25841560        0.00971216        0.01012059        0.00968769        0.01804367        0.01887227        0.00077627        0.01882543        0.00059826
      70         -0.729301        2.000000        0.25841560        0.01002785        0.00942850        0.01006408        0.01936837        0.01815182        0.00055662        0.01822118        0.00081791
      71         -0.729301        2.000000        0.25841561        0.00978043        0.00997135        0.00976866        0.01832933        0.01871728        0.00072890        0.01869476        0.00064563
      72         -0.727466        2.000000        0.38565023        0.01878198        0.01878198        0.01878198        0.02482524        0.02482524        0.00344970        0.02482524        0.00344970
      73         -0.727105        2.000000        0.32748866        0.01257734        0.01257734        0.01257734        0.01646302        0.01646302        0.00345053        0.01646302        0.00345053
      74         -0.726372        2.000000        0.64657569        0.02363935        0.02013847        0.02094877        0.02437746        0.02455846        0.00289957        0.02515946        0.00472751
      75         -0.726372        2.000000        0.64657569        0.01951171        0.02301259        0.02220229        0.02501946        0.02483846        0.00472751        0.02423746        0.00289957
      76         -0.726325        2.000000        0.50537931        0.02284721        0.01729865        0.02325284        0.02801786        0.02750841        0.00256218        0.02754311        0.00304434
      77         -0.726325        2.000000        0.50537931        0.01858145        0.02674174        0.01807551        0.02720989        0.02795139        0.00315592        0.02790810        0.00245060
      78         -0.726325        2.000000        0.50537931        0.02197004        0.01935831        0.02207034        0.02784163        0.02760959        0.00269168        0.02761817        0.00291484
      79         -0.725720        2.000000        0.26557790        0.01314705        0.01160064        0.01328571        0.01993455        0.01975009        0.00138537        0.01976527        0.00171681
      80         -0.725720        2.000000        0.26557790        0.01112897        0.01604236        0.01086207        0.01944831        0.02001541        0.00206873        0.01998619        0.00103344
      81         -0.725720        2.000000        0.26557790        0.01375739        0.01039039        0.01388562        0.02006704        0.01968441        0.00119917        0.01969845        0.00190301
      82         -0.725300        2.000000        0.36730078        0.01800333        0.01844841        0.01797844        0.03459740        0.02890752        0.00159371        0.02920886        0.00106950
      83         -0.725300        2.000000        0.36730078        0.01834777        0.01769563        0.01838677        0.02548363        0.03385117        0.00094684        0.03337898        0.00171636
      84         -0.725300        2.000000        0.36730078        0.01807907        0.01828613        0.01806496        0.03263275        0.02995509        0.00145426        0.03012594        0.00120895
      85         -0.725220        2.000000        0.51682125        0.02302214        0.02302214        0.02302214        0.02460152        0.02460152        0.00501590        0.02460152        0.00501590
      86         -0.724877        2.000000        0.27907418        0.01255094        0.01020165        0.01294573        0.01972550        0.02915322        0.00053929        0.02779687        0.00134252
      87         -0.724877        2.000000        0.27907418        0.01124794        0.01359723        0.01085315        0.03139156        0.02196384        0.00134252        0.02332019        0.00053929
      88         -0.723308        2.000000        0.25164619        0.00994231        0.00967160        0.01178416        0.02093210        0.01883848        0.00107868        0.02066381        0.00217668
      89         -0.723308        2.000000        0.25164619        0.01098974        0.01126045        0.00914788        0.01935750        0.02145111        0.00217668        0.01962578        0.00107868
      90         -0.721992        2.000000        0.50618896        0.02306596        0.02872449        0.02284973        0.02602370        0.02019662        0.00728894        0.02041110        0.00563910
      91         -0.721992        2.000000        0.50618896        0.02748461        0.01922784        0.02792773        0.01660413        0.02523341        0.00525119        0.02479389        0.00767684
      92         -0.721992        2.000000        0.50618896        0.02408961        0.02668785        0.02386272        0.02400359        0.02120139        0.00685192        0.02142644        0.00607611
      93         -0.720720        2.000000        0.26577460        0.01388112        0.01388345        0.01388095        0.02622802        0.02438273        0.00099851        0.02450889        0.00104660
      94         -0.720720        2.000000        0.26577460        0.01388415        0.01387681        0.01388457        0.02131312        0.02706192        0.00109797        0.02674460        0.00094714
      95         -0.720720        2.000000        0.26577460        0.01388026        0.01388527        0.01388000        0.02757849        0.02367499        0.00097118        0.02386616        0.00107393
      96         -0.720254        2.000000        0.22964927        0.01067532        0.01067532        0.01067532        0.01958515        0.01958515        0.00080056        0.01958515        0.00080056
      97         -0.720004        2.000000        0.55222510        0.02395621        0.02471787        0.02392237        0.02564607        0.02587161        0.00581886        0.02586201        0.00632345
      98         -0.720004        2.000000        0.55222510        0.02494158        0.02256359        0.02509128        0.02625684        0.02554020        0.00686599        0.02558264        0.00527632
      99         -0.720004        2.000000        0.55222510        0.02369866        0.02531499        0.02358280        0.02547677        0.02596788        0.00552861        0.02593503        0.00661370
     100         -0.719678        2.000000        0.27734607        0.01630892        0.01379655        0.01807664        0.01595173        0.02981015        0.00092968        0.02408649        0.00244345
     101         -0.719678        2.000000        0.27734607        0.01581248        0.01832486        0.01404476        0.03061385        0.01675543        0.00244345        0.02247909        0.00092968
     102         -0.718921        2.000000        0.38157165        0.01997452        0.02222800        0.01984403        0.02961740        0.03081831        0.00268189        0.03075258        0.00318062
     103         -0.718921        2.000000        0.38157165        0.02171771        0.01841346        0.02191537        0.03153895        0.02977489        0.00329724        0.02987446        0.00256528
     104         -0.718921        2.000000        0.38157165        0.02035432        0.02140508        0.02028714        0.03003194        0.03059509        0.00281464        0.03056125        0.00304787
     105         -0.718541        2.000000        0.48386859        0.02093744        0.02406908        0.02073732        0.03052518        0.02959867        0.00395728        0.02965432        0.00296578
     106         -0.718541        2.000000        0.48386859        0.02334908        0.01875444        0.02364033        0.02904727        0.03040595        0.00273436        0.03032496        0.00418869
     107         -0.718541        2.000000        0.48386859        0.02145733        0.02292032        0.02136619        0.03020573        0.02977355        0.00369294        0.02979889        0.00323011
     108         -0.717729        2.000000        0.31879421        0.01475546        0.01625953        0.01467586        0.02279851        0.02250943        0.00361059        0.02252396        0.00331468
     109         -0.717729        2.000000        0.31879421        0.01670518        0.01199293        0.01699274        0.02201969        0.02293235        0.00299727        0.02287986        0.00392800
     110         -0.717729        2.000000        0.31879421        0.01423021        0.01743839        0.01402225        0.02301370        0.02239012        0.00378005        0.02242808        0.00314522
     111         -0.717249        2.000000        0.41189813        0.02207600        0.02291348        0.02203212        0.02871276        0.02811869        0.00405375        0.02814827        0.00415345
     112         -0.717249        2.000000        0.41189813        0.02272562        0.02149854        0.02279744        0.02775904        0.02863455        0.00417686        0.02858613        0.00403034
     113         -0.717249        2.000000        0.41189813        0.02221998        0.02260958        0.02219204        0.02850792        0.02822648        0.00408019        0.02824532        0.00412701
     114         -0.715190        2.000000        0.33239807        0.01762381        0.01599610        0.01772230        0.02467296        0.02606238        0.00239852        0.02598311        0.00253742
     115         -0.715190        2.000000        0.33239807        0.01636644        0.01875712        0.01621864        0.02689532        0.02485208        0.00257004        0.02497105        0.00236590
     116         -0.715190        2.000000        0.33239807        0.01735196        0.01658898        0.01740127        0.02515017        0.02580399        0.00243535        0.02576430        0.00250059
     117         -0.713732        2.000000        0.50375692        0.02915681        0.02915681        0.02915681        0.03685575        0.03685575        0.00570932        0.03685575        0.00570932
     118         -0.712366        2.000000        0.35944216        0.01977759        0.01878355        0.01983613        0.02477984        0.02551941        0.00337939        0.02547828        0.00321587
     119         -0.712366        2.000000        0.35944216        0.01849516        0.02161011        0.01829200        0.02676585        0.02443447        0.00304064        0.02457721        0.00355463
     120         -0.712366        2.000000        0.35944216        0.02012452        0.01800361        0.02026914        0.02423184        0.02582365        0.00347286        0.02572204        0.00312240
     121         -0.710929        2.000000        0.50188394        0.02732221        0.02732221        0.02732221        0.03859325        0.03859325        0.00349423        0.03859325        0.00349423
     122         -0.710812        2.000000        0.44684675        0.02834149        0.02859867        0.03013950        0.02932616        0.03253576        0.00523814        0.02879045        0.00675485
     123         -0.710812        2.000000        0.44684675        0.02971161        0.02945444        0.02791361        0.03110876        0.02789915        0.00675485        0.03164447        0.00523814
     124         -0.710064        2.000000        0.45782327        0.02993653        0.02083639        0.03077810        0.02319274        0.02826782        0.00673731        0.02783821        0.00753394
     125         -0.710064        2.000000        0.45782327        0.02302723        0.03645280        0.02207100        0.03116466        0.02382298        0.00771729        0.02431113        0.00655395
     126         -0.710064        2.000000        0.45782327        0.02858726        0.02426184        0.02870193        0.02494137        0.02720797        0.00695227        0.02714943        0.00731898
     127         -0.709979        2.000000        0.24530860        0.01562748        0.01565936        0.01563635        0.02156885        0.02203330        0.00325646        0.02221242        0.00305469
     128         -0.709979        2.000000        0.24530860        0.01565834        0.01560859        0.01565626        0.02259367        0.02163145        0.00297653        0.02158945        0.00333462
     129         -0.709979        2.000000        0.24530860        0.01563737        0.01565524        0.01563058        0.02165205        0.02214983        0.00323374        0.02201269        0.00307742
     130         -0.708905        2.000000        0.44497162        0.02077978        0.02077978        0.02077978        0.02142463        0.02142463        0.00486972        0.02142463        0.00486972
     131         -0.708701        2.000000        0.28013433        0.01803427        0.01675146        0.01811627        0.02354483        0.02575866        0.00275426        0.02562566        0.00294241
     132         -0.708701        2.000000        0.28013433        0.01637210        0.02040507        0.01612483        0.02947128        0.02252839        0.00314371        0.02292948        0.00255296
     133         -0.708701        2.000000        0.28013433        0.01849562        0.01574547        0.01866090        0.02191304        0.02664210        0.00264703        0.02637401        0.00304964
     134         -0.707846        2.000000        0.40059421        0.00704330        0.02039356        0.02738712        0.02171150        0.02703066        0.00632546        0.01155756        0.00549731
     135         -0.707846        2.000000        0.40059421        0.02950602        0.01615576        0.00916220        0.01848832        0.01316916        0.00549731        0.02864226        0.00632546
     136         -0.707161        2.000000        0.35569238        0.02485774        0.02461805        0.02536959        0.03659679        0.03220643        0.00355262        0.03519655        0.00290281
     137         -0.707161        2.000000        0.35569238        0.02503918        0.02527887        0.02452733        0.03273639        0.03712675        0.00290281        0.03413663        0.00355262
     138         -0.705284        2.000000        0.47194432        0.02798104        0.02209454        0.02839641        0.02846944        0.02899409        0.00475677        0.02895951        0.00608075
     139         -0.705284        2.000000        0.47194432        0.02346204        0.03211065        0.02289930        0.02930331        0.02853644        0.00638880        0.02858329        0.00444873
     140         -0.705284        2.000000        0.47194432        0.02702891        0.02426680        0.02717629        0.02865029        0.02889251        0.00511072        0.02888024        0.00572681
     141         -0.702368        2.000000        0.40679415        0.02340641        0.02337854        0.02340982        0.02727614        0.02486671        0.00347421        0.02512958        0.00363928
     142         -0.702368        2.000000        0.40679415        0.02336936        0.02345805        0.02336737        0.02115127        0.02813719        0.00380708        0.02798397        0.00330641
     143         -0.702368        2.000000        0.40679415        0.02341901        0.02335818        0.02341758        0.02884502        0.02426853        0.00338895        0.02415888        0.00372454
     144         -0.700477        2.000000        0.35916030        0.02545818        0.03491748        0.02488919        0.03319595        0.02281785        0.00877562        0.02340668        0.00585253