# Projected DOS for list 2 of 165 atoms, at iteration step i = 0, E(Fermi) =    -0.445981 a.u.
#     MO Eigenvalue [a.u.]      Occupation                 s                py                pz                px               d-2               d-1                d0               d+1               d+2
       1         -0.757431        2.000000        0.78166974        0.00165097        0.00165097        0.00165097        0.00025851        0.00025851        0.00003198        0.00025851        0.00003198
       2         -0.755590        2.000000        0.66625156        0.00428547        0.00848040        0.00444500        0.00207871        0.00171306        0.00062524        0.00169861        0.00031676
       3         -0.755590        2.000000        0.66625156        0.00764995        0.00165545        0.00790547        0.00146030        0.00202662        0.00024153        0.00200346        0.00070047
       4         -0.755590        2.000000        0.66625156        0.00527545        0.00707502        0.00486040        0.00195137        0.00175070        0.00054623        0.00178831        0.00039577
       5         -0.752797        2.000000        0.65032069        0.00619148        0.00553828        0.01633722        0.00154575        0.00551896        0.00125918        0.00178608        0.00254476
       6         -0.752797        2.000000        0.65032069        0.01251984        0.01317305        0.00237410        0.00435478        0.00038157        0.00254476        0.00411445        0.00125918
       7         -0.752785        2.000000        0.47635722        0.01179050        0.00717135        0.01248814        0.00603486        0.00463648        0.00086397        0.00481997        0.00056363
       8         -0.752785        2.000000        0.47635722        0.00841657        0.01525729        0.00777613        0.00390817        0.00587579        0.00049734        0.00570735        0.00093026
       9         -0.752785        2.000000        0.47635722        0.01124292        0.00902135        0.01118571        0.00554829        0.00497904        0.00078009        0.00496399        0.00064751
      10         -0.750832        2.000000        0.62891823        0.01765365        0.01765365        0.01765365        0.00888407        0.00888407        0.00301454        0.00888407        0.00301454
      11         -0.749808        2.000000        0.24532465        0.01277122        0.01277122        0.01277122        0.00858847        0.00858847        0.00008861        0.00858847        0.00008861
      12         -0.749323        2.000000        0.47493485        0.01147816        0.01424989        0.01312044        0.00556037        0.00535145        0.00374409        0.00504768        0.00325509
      13         -0.749323        2.000000        0.47493485        0.01494819        0.00784689        0.01605342        0.00437600        0.00589397        0.00254020        0.00568953        0.00445898
      14         -0.749323        2.000000        0.47493485        0.01242215        0.01675171        0.00967463        0.00602313        0.00471408        0.00421448        0.00522229        0.00278470
      15         -0.748319        2.000000        0.46509980        0.01372275        0.01597639        0.01359658        0.00806076        0.01062616        0.00142410        0.01049015        0.00233789
      16         -0.748319        2.000000        0.46509980        0.01548328        0.01216182        0.01565061        0.01217281        0.00841195        0.00255254        0.00859232        0.00120945
      17         -0.748319        2.000000        0.46509981        0.01408968        0.01515750        0.01404853        0.00894351        0.01013897        0.00166635        0.01009460        0.00209565
      18         -0.745959        2.000000        0.52591061        0.02074648        0.02966654        0.02035592        0.01461197        0.01613719        0.00490470        0.01607320        0.00369191
      19         -0.745959        2.000000        0.52591061        0.02768880        0.01465269        0.02842745        0.01707146        0.01481495        0.00340651        0.01493595        0.00519009
      20         -0.745959        2.000000        0.52591061        0.02233366        0.02644971        0.02198557        0.01513893        0.01587022        0.00458370        0.01581320        0.00401291
      21         -0.744612        2.000000        0.42184611        0.01502588        0.01502588        0.01502588        0.00624997        0.00624997        0.00707340        0.00624997        0.00707340
      22         -0.744580        2.000000        0.26438013        0.01491666        0.01561583        0.01333381        0.01500390        0.01486373        0.00104653        0.01496095        0.00055113
      23         -0.744580        2.000000        0.26438013        0.01388603        0.01357640        0.01640388        0.01487863        0.01505230        0.00053818        0.01489765        0.00105949
      24         -0.744580        2.000000        0.26438013        0.01506361        0.01467408        0.01412861        0.01494605        0.01491255        0.00081179        0.01496998        0.00078588
      25         -0.744338        2.000000        0.34768590        0.01719191        0.01378416        0.01760848        0.01077994        0.00990678        0.00441319        0.01000189        0.00494734
      26         -0.744338        2.000000        0.34768590        0.01276267        0.02363802        0.01218386        0.00853013        0.01114532        0.00550489        0.01101316        0.00385564
      27         -0.744338        2.000000        0.34768590        0.01862998        0.01116236        0.01879221        0.01137854        0.00963652        0.00412272        0.00967356        0.00523781
      28         -0.743065        2.000000        0.48603495        0.02131343        0.02009223        0.01304370        0.01117907        0.00913533        0.00673598        0.01153316        0.00542675
      29         -0.743065        2.000000        0.48603495        0.01498615        0.01620735        0.02325587        0.01005264        0.01209638        0.00542675        0.00969855        0.00673598
      30         -0.740207        2.000000        0.17986938        0.01492774        0.01503519        0.01708932        0.01496124        0.01963309        0.00182339        0.01471687        0.00363865
      31         -0.740207        2.000000        0.17986938        0.01644043        0.01633298        0.01427885        0.01791289        0.01324104        0.00363865        0.01815727        0.00182339
      32         -0.739829        2.000000        0.39196077        0.02517414        0.02180677        0.02560128        0.02609675        0.02172115        0.00370429        0.02221370        0.00330499
      33         -0.739829        2.000000        0.39196077        0.02073074        0.03164953        0.02020191        0.01474667        0.02794737        0.00288114        0.02733756        0.00412814
      34         -0.739829        2.000000        0.39196077        0.02667730        0.01912589        0.02677899        0.02918818        0.02036308        0.00392849        0.02048035        0.00308079
      35         -0.739598        2.000000        0.44045284        0.02364318        0.02318572        0.02941582        0.02003613        0.03188418        0.00420069        0.02090610        0.00744387
      36         -0.739598        2.000000        0.44045284        0.02718664        0.02764410        0.02141400        0.02851481        0.01666676        0.00744387        0.02764484        0.00420069
      37         -0.738376        2.000000        0.31129745        0.01758082        0.01948885        0.01751130        0.01175596        0.01082712        0.00943818        0.01085977        0.00814932
      38         -0.738376        2.000000        0.31129745        0.02005322        0.01409803        0.02042972        0.00922393        0.01219788        0.00675596        0.01202104        0.01083154
      39         -0.738376        2.000000        0.31129745        0.01694693        0.02099409        0.01663995        0.01246295        0.01041785        0.01018711        0.01056204        0.00740039
      40         -0.738156        2.000000        0.47993381        0.02886664        0.02886664        0.02886664        0.02746300        0.02746300        0.00535420        0.02746300        0.00535420
      41         -0.737794        2.000000        0.32280891        0.01714071        0.01611215        0.01722546        0.02876185        0.02785787        0.00094900        0.02792668        0.00141692
      42         -0.737794        2.000000        0.32280891        0.01635497        0.01787177        0.01625157        0.02733308        0.02864864        0.00152562        0.02856468        0.00084030
      43         -0.737794        2.000000        0.32280891        0.01698263        0.01649440        0.01700128        0.02845147        0.02803989        0.00107426        0.02805504        0.00129166
      44         -0.737083        2.000000        0.32426098        0.01954692        0.01999068        0.01951696        0.01311752        0.01642262        0.00630378        0.01621356        0.00692283
      45         -0.737083        2.000000        0.32426098        0.01986947        0.01925788        0.01992721        0.01823016        0.01356033        0.00704544        0.01396320        0.00618117
      46         -0.737083        2.000000        0.32426098        0.01963817        0.01980600        0.01961039        0.01440601        0.01577074        0.00649069        0.01557694        0.00673592
      47         -0.735610        2.000000        0.38857743        0.02082089        0.02082089        0.02082089        0.04187253        0.04187253        0.00051873        0.04187253        0.00051873
      48         -0.734149        2.000000        0.42744003        0.02432557        0.03444753        0.02382291        0.02689637        0.02771124        0.00960926        0.02767269        0.00678468
      49         -0.734149        2.000000        0.42744003        0.03218713        0.01736172        0.03304716        0.02820679        0.02700377        0.00612000        0.02706973        0.01027395
      50         -0.734149        2.000000        0.42744003        0.02608331        0.03078676        0.02572594        0.02717714        0.02756528        0.00886166        0.02753788        0.00753229
      51         -0.733122        2.000000        0.18045325        0.01321300        0.01459960        0.01313738        0.02283534        0.02235322        0.00337902        0.02237815        0.00262234
      52         -0.733122        2.000000        0.18045325        0.01500934        0.01066122        0.01527942        0.02153678        0.02305949        0.00180991        0.02297044        0.00419146
      53         -0.733122        2.000000        0.18045325        0.01272764        0.01568916        0.01253318        0.02319459        0.02215400        0.00381312        0.02221812        0.00218825
      54         -0.732431        2.000000        0.18807755        0.01403333        0.01387804        0.01404367        0.02510833        0.02638244        0.00117085        0.02630291        0.00145837
      55         -0.732431        2.000000        0.18807755        0.01383226        0.01432103        0.01380175        0.02851610        0.02452145        0.00176618        0.02475613        0.00086304
      56         -0.732431        2.000000        0.18807755        0.01408945        0.01375597        0.01410962        0.02416925        0.02688978        0.00100680        0.02673464        0.00162242
      57         -0.730907        2.000000        0.26433501        0.01432209        0.01015463        0.03012875        0.00879023        0.01521648        0.00884324        0.01013103        0.01538059
      58         -0.730907        2.000000        0.26433501        0.02208156        0.02624902        0.00627489        0.01396826        0.00754201        0.01538059        0.01262747        0.00884324
      59         -0.730893        2.000000        0.39339794        0.02802647        0.03187746        0.02782924        0.03174192        0.04058095        0.00266301        0.04015033        0.00342261
      60         -0.730893        2.000000        0.39339794        0.03102101        0.02537808        0.03133408        0.04593292        0.03292835        0.00360049        0.03361193        0.00248513
      61         -0.730893        2.000000        0.39339794        0.02868570        0.03047763        0.02856984        0.03479836        0.03896390        0.00286493        0.03871094        0.00322069
      62         -0.730556        2.000000        0.38499908        0.02016024        0.02016024        0.02016024        0.05632017        0.05632017        0.00048060        0.05632017        0.00048060
      63         -0.730426        2.000000        0.30046645        0.02356028        0.02343165        0.02357283        0.02280595        0.02302071        0.00844036        0.02300162        0.00916776
      64         -0.730426        2.000000        0.30046645        0.02338949        0.02380492        0.02337036        0.02337378        0.02271269        0.00994988        0.02274180        0.00765824
      65         -0.730426        2.000000        0.30046645        0.02361499        0.02332819        0.02362158        0.02264855        0.02309487        0.00802194        0.02308485        0.00958618
      66         -0.729635        2.000000        0.44335812        0.02849334        0.02888485        0.02847029        0.04467429        0.04691795        0.00453472        0.04679321        0.00465845
      67         -0.729635        2.000000        0.44335812        0.02900073        0.02777256        0.02907519        0.05069408        0.04364420        0.00479082        0.04404717        0.00440235
      68         -0.729635        2.000000        0.44335811        0.02835441        0.02919106        0.02830300        0.04301708        0.04782330        0.00446422        0.04754507        0.00472896
      69         -0.729301        2.000000        0.40022105        0.02337531        0.02464063        0.02329950        0.05903629        0.06033217        0.00184454        0.06025892        0.00193966
      70         -0.729301        2.000000        0.40022105        0.02435332        0.02249653        0.02446558        0.06110805        0.05920543        0.00196190        0.05931390        0.00182229
      71         -0.729301        2.000000        0.40022105        0.02358681        0.02417827        0.02355036        0.05948305        0.06008978        0.00186985        0.06005456        0.00191435
      72         -0.727466        2.000000        0.32306645        0.02379244        0.02379244        0.02379244        0.02280867        0.02280867        0.00687945        0.02280867        0.00687945
      73         -0.727105        2.000000        0.38834038        0.02761623        0.02761623        0.02761623        0.02856324        0.02856324        0.01080520        0.02856324        0.01080520
      74         -0.726372        2.000000        0.09828353        0.01607899        0.01039269        0.01170881        0.02198583        0.02164868        0.00257465        0.02052918        0.00377292
      75         -0.726372        2.000000        0.09828353        0.00937467        0.01506097        0.01374485        0.02078996        0.02112711        0.00377292        0.02224662        0.00257465
      76         -0.726325        2.000000        0.20174913        0.01959844        0.01503195        0.01993228        0.02823419        0.02410679        0.00402482        0.02438797        0.00548051
      77         -0.726325        2.000000        0.20174913        0.01608770        0.02280366        0.01567131        0.02168832        0.02769567        0.00581738        0.02734496        0.00368795
      78         -0.726325        2.000000        0.20174913        0.01887653        0.01672706        0.01895908        0.02680644        0.02492649        0.00441580        0.02499602        0.00508953
      79         -0.725720        2.000000        0.39579241        0.02697687        0.02449155        0.02719973        0.05212774        0.05057725        0.00282916        0.05070485        0.00313704
      80         -0.725720        2.000000        0.39579241        0.02373349        0.03163012        0.02330455        0.04804077        0.05280732        0.00346394        0.05256174        0.00250226
      81         -0.725720        2.000000        0.39579241        0.02795779        0.02254648        0.02816388        0.05324133        0.05002526        0.00265620        0.05014325        0.00331000
      82         -0.725300        2.000000        0.28519833        0.01877161        0.01914586        0.01875068        0.05008438        0.04467444        0.00071977        0.04496096        0.00058603
      83         -0.725300        2.000000        0.28519833        0.01906124        0.01851288        0.01909403        0.04141901        0.04937486        0.00055473        0.04892591        0.00075107
      84         -0.725300        2.000000        0.28519833        0.01883530        0.01900941        0.01882344        0.04821639        0.04567047        0.00068420        0.04583291        0.00062161
      85         -0.725220        2.000000        0.19451589        0.01728806        0.01728806        0.01728806        0.02479967        0.02479967        0.00474845        0.02479967        0.00474845
      86         -0.724877        2.000000        0.35845224        0.02495786        0.01937269        0.02589642        0.05132289        0.06352580        0.00037393        0.06177018        0.00099807
      87         -0.724877        2.000000        0.35845224        0.02186012        0.02744529        0.02092156        0.06642303        0.05422011        0.00099807        0.05597573        0.00037393
      88         -0.723308        2.000000        0.40948491        0.02758832        0.02502831        0.04500594        0.04438317        0.04223127        0.00588893        0.04410742        0.00954773
      89         -0.723308        2.000000        0.40948491        0.03749339        0.04005340        0.02007578        0.04276473        0.04491663        0.00954773        0.04304049        0.00588893
      90         -0.721992        2.000000        0.20761944        0.01821847        0.02384650        0.01800341        0.01711150        0.01452614        0.01470366        0.01462130        0.01096098
      91         -0.721992        2.000000        0.20761944        0.02261331        0.01440104        0.02305404        0.01293222        0.01676086        0.01008101        0.01656586        0.01558364
      92         -0.721992        2.000000        0.20761944        0.01923660        0.02182084        0.01901094        0.01621522        0.01497193        0.01371230        0.01507178        0.01195235
      93         -0.720720        2.000000        0.36908185        0.02984905        0.02916227        0.02989945        0.05649446        0.04862052        0.00159572        0.04915885        0.00155294
      94         -0.720720        2.000000        0.36908185        0.02895591        0.03112572        0.02882914        0.03552240        0.06005273        0.00150723        0.05869870        0.00164143
      95         -0.720720        2.000000        0.36908185        0.03010581        0.02862278        0.03018218        0.06225696        0.04560058        0.00162004        0.04641628        0.00152863
      96         -0.720254        2.000000        0.40159165        0.03453340        0.03453340        0.03453340        0.05485470        0.05485470        0.00410613        0.05485470        0.00410613
      97         -0.720004        2.000000        0.15646833        0.01935497        0.01969135        0.01934003        0.01694826        0.01747340        0.00959168        0.01745105        0.00933739
      98         -0.720004        2.000000        0.15646833        0.01979015        0.01873993        0.01985627        0.01837038        0.01670175        0.00906398        0.01680058        0.00986509
      99         -0.720004        2.000000        0.15646833        0.01924123        0.01995507        0.01919006        0.01655407        0.01769756        0.00973795        0.01762108        0.00919113
     100         -0.719678        2.000000        0.37163544        0.03114137        0.02662265        0.03432077        0.02231858        0.06275698        0.00229522        0.04605552        0.00410378
     101         -0.719678        2.000000        0.37163544        0.03024849        0.03476721        0.02706909        0.06510214        0.02466374        0.00410378        0.04136520        0.00229522
     102         -0.718921        2.000000        0.26828045        0.02190168        0.02073543        0.02196921        0.03906697        0.04066400        0.00289653        0.04057659        0.00324015
     103         -0.718921        2.000000        0.26828045        0.02099952        0.02270957        0.02089722        0.04162234        0.03927640        0.00332050        0.03940882        0.00281618
     104         -0.718921        2.000000        0.26828045        0.02170512        0.02116132        0.02173988        0.03961825        0.04036716        0.00298799        0.04032215        0.00314869
     105         -0.718541        2.000000        0.19272750        0.01839893        0.02085522        0.01824197        0.03239688        0.03170731        0.00489830        0.03174873        0.00271152
     106         -0.718541        2.000000        0.19272750        0.02029048        0.01668671        0.02051892        0.03129692        0.03230814        0.00220113        0.03224786        0.00540869
     107         -0.718541        2.000000        0.19272750        0.01880670        0.01995419        0.01873522        0.03215912        0.03183746        0.00431530        0.03185633        0.00329452
     108         -0.717729        2.000000        0.32681668        0.02788429        0.02953798        0.02779677        0.04642343        0.04667920        0.00484127        0.04666634        0.00411179
     109         -0.717729        2.000000        0.32681668        0.03002796        0.02484695        0.03034413        0.04711251        0.04630501        0.00332930        0.04635145        0.00562377
     110         -0.717729        2.000000        0.32681668        0.02730679        0.03083411        0.02707814        0.04623304        0.04678476        0.00525903        0.04675117        0.00369404
     111         -0.717249        2.000000        0.25130980        0.02420850        0.02498466        0.02416783        0.02980526        0.03035816        0.00679939        0.03033063        0.00592912
     112         -0.717249        2.000000        0.25130980        0.02481056        0.02367332        0.02487712        0.03069288        0.02987805        0.00572479        0.02992311        0.00700372
     113         -0.717249        2.000000        0.25130980        0.02434194        0.02470301        0.02431605        0.02999590        0.03025783        0.00656858        0.03024031        0.00615992
     114         -0.715190        2.000000        0.30573751        0.03080408        0.02948586        0.03088384        0.03714818        0.04585990        0.00457712        0.04536285        0.00474598
     115         -0.715190        2.000000        0.30573751        0.02978578        0.03172191        0.02966608        0.05108246        0.03827128        0.00478564        0.03901719        0.00453747
     116         -0.715190        2.000000        0.30573751        0.03058392        0.02996601        0.03062385        0.04014029        0.04423975        0.00462190        0.04399089        0.00470121
     117         -0.713732        2.000000        0.15334860        0.01766855        0.01766855        0.01766855        0.02162100        0.02162100        0.00778477        0.02162100        0.00778477
     118         -0.712366        2.000000        0.28687593        0.02810679        0.03159422        0.02790142        0.03781974        0.03803548        0.00624204        0.03802348        0.00518866
     119         -0.712366        2.000000        0.28687593        0.03260598        0.02167772        0.03331873        0.03839906        0.03771900        0.00405983        0.03776064        0.00737088
     120         -0.712366        2.000000        0.28687593        0.02688966        0.03433049        0.02638228        0.03765989        0.03812422        0.00684418        0.03809458        0.00458652
     121         -0.710929        2.000000        0.14359339        0.01747004        0.01747004        0.01747004        0.03147611        0.03147611        0.00147470        0.03147611        0.00147470
     122         -0.710812        2.000000        0.20647043        0.01923290        0.02056421        0.02854047        0.02091105        0.02658406        0.01029926        0.01996418        0.01086165
     123         -0.710812        2.000000        0.20647043        0.02632548        0.02499418        0.01701792        0.02406181        0.01838880        0.01086165        0.02500868        0.01029926
     124         -0.710064        2.000000        0.20264508        0.02500433        0.02015033        0.02545322        0.02337077        0.02557426        0.00757192        0.02538773        0.01189804
     125         -0.710064        2.000000        0.20264508        0.02131892        0.02848010        0.02080886        0.02683200        0.02364441        0.01289376        0.02385635        0.00657620
     126         -0.710064        2.000000        0.20264508        0.02428463        0.02197745        0.02434579        0.02412999        0.02511409        0.00873926        0.02508868        0.01073070
     127         -0.709979        2.000000        0.36205646        0.03398703        0.04004957        0.03567445        0.05117752        0.05185351        0.00487463        0.05211423        0.00385509
     128         -0.709979        2.000000        0.36205646        0.03985550        0.03039563        0.03945992        0.05266913        0.05126863        0.00346014        0.05120751        0.00526958
     129         -0.709979        2.000000        0.36205646        0.03586852        0.03926586        0.03457667        0.05129861        0.05202312        0.00475981        0.05182352        0.00396991
     130         -0.708905        2.000000        0.22519208        0.02714128        0.02714128        0.02714128        0.02811511        0.02811511        0.01385723        0.02811511        0.01385723
     131         -0.708701        2.000000        0.32649929        0.03608231        0.03299471        0.03627966        0.04498776        0.05089269        0.00385535        0.05053793        0.00420816
     132         -0.708701        2.000000        0.32649929        0.03208164        0.04178856        0.03148648        0.06079530        0.04227662        0.00458565        0.04334646        0.00347786
     133         -0.708701        2.000000        0.32649929        0.03719273        0.03057341        0.03759054        0.04063532        0.05324907        0.00365427        0.05253399        0.00440924
     134         -0.707846        2.000000        0.25371821        0.01319186        0.03366229        0.04438576        0.03924959        0.04800593        0.00954719        0.02253432        0.00816416
     135         -0.707846        2.000000        0.25371821        0.04763475        0.02716432        0.01644084        0.03394363        0.02518730        0.00816416        0.05065891        0.00954719
     136         -0.707161        2.000000        0.25051395        0.02911442        0.02791679        0.03167188        0.03641015        0.03488430        0.00558178        0.03592350        0.00699027
     137         -0.707161        2.000000        0.25051395        0.03002098        0.03121860        0.02746351        0.03506849        0.03659433        0.00699027        0.03555513        0.00558178
     138         -0.705284        2.000000        0.18100427        0.02551236        0.02155202        0.02579181        0.03091470        0.02726606        0.00516328        0.02750655        0.00761208
     139         -0.705284        2.000000        0.18100427        0.02247205        0.02829069        0.02209344        0.02511559        0.03044877        0.00818183        0.03012295        0.00459353
     140         -0.705284        2.000000        0.18100427        0.02487178        0.02301347        0.02497093        0.02965702        0.02797248        0.00581793        0.02805781        0.00695743
     141         -0.702368        2.000000        0.22563228        0.02910354        0.02971003        0.02902927        0.04298662        0.03635957        0.00390794        0.03708259        0.00481331
     142         -0.702368        2.000000        0.22563228        0.02991001        0.02797952        0.02995330        0.02614039        0.04535490        0.00573364        0.04493348        0.00298761
     143         -0.702368        2.000000        0.22563228        0.02882928        0.03015329        0.02886026        0.04730177        0.03471430        0.00344029        0.03441271        0.00528096
     144         -0.700477        2.000000        0.25524279        0.02666482        0.03478261        0.02617653        0.04119497        0.02819494        0.01111654        0.02893253        0.00922048