# Projected DOS for atomic kind H at iteration step i = 0, E(Fermi) =    -0.420418 a.u.
#     MO Eigenvalue [a.u.]      Occupation                 s
       1         -0.724906        2.000000        0.03566842
       2         -0.717483        2.000000        0.06470089
       3         -0.717483        2.000000        0.06470089
       4         -0.717483        2.000000        0.06470089
       5         -0.708424        2.000000        0.08702346
       6         -0.708424        2.000000        0.08702346
       7         -0.708424        2.000000        0.08702346
       8         -0.705880        2.000000        0.10734623
       9         -0.704611        2.000000        0.11059900
      10         -0.704611        2.000000        0.11059900
      11         -0.698800        2.000000        0.08269000
      12         -0.697959        2.000000        0.08934623
      13         -0.697959        2.000000        0.08934623
      14         -0.697959        2.000000        0.08934623
      15         -0.695046        2.000000        0.09046557
      16         -0.695046        2.000000        0.09046557
      17         -0.695046        2.000000        0.09046557
      18         -0.687045        2.000000        0.13421822
      19         -0.687045        2.000000        0.13421822
      20         -0.684589        2.000000        0.11287621
      21         -0.684589        2.000000        0.11287621
      22         -0.684589        2.000000        0.11287621
      23         -0.679988        2.000000        0.16442000
      24         -0.679988        2.000000        0.16442000
      25         -0.679988        2.000000        0.16442000
      26         -0.672935        2.000000        0.14462563
      27         -0.672935        2.000000        0.14462563
      28         -0.672935        2.000000        0.14462563
      29         -0.659838        2.000000        0.17433876
      30         -0.659265        2.000000        0.18949612
      31         -0.659265        2.000000        0.18949612
      32         -0.638123        2.000000        0.22002843
      33         -0.638123        2.000000        0.22002843
      34         -0.638123        2.000000        0.22002843
      35         -0.635324        2.000000        0.24473092
      36         -0.635324        2.000000        0.24473092
      37         -0.635324        2.000000        0.24473092
      38         -0.625155        2.000000        0.23507735
      39         -0.625155        2.000000        0.23507735
      40         -0.625155        2.000000        0.23507735
      41         -0.620705        2.000000        0.27368590
      42         -0.620705        2.000000        0.27368590
      43         -0.607191        2.000000        0.30145506
      44         -0.607191        2.000000        0.30145506
      45         -0.607191        2.000000        0.30145506
      46         -0.605292        2.000000        0.29503365
      47         -0.597891        2.000000        0.18972493
      48         -0.597891        2.000000        0.18972493
      49         -0.597891        2.000000        0.18972493
      50         -0.592747        2.000000        0.23570552
      51         -0.592747        2.000000        0.23570552
      52         -0.592147        2.000000        0.23368802
      53         -0.578897        2.000000        0.23956867
      54         -0.578897        2.000000        0.23956867
      55         -0.578897        2.000000        0.23956867
      56         -0.552733        2.000000        0.22646256
      57         -0.552733        2.000000        0.22646256
      58         -0.552733        2.000000        0.22646256
      59         -0.535780        2.000000        0.50580544
      60         -0.535780        2.000000        0.50580544
      61         -0.535780        2.000000        0.50580544
      62         -0.533425        2.000000        0.52148915
      63         -0.533425        2.000000        0.52148915
      64         -0.533425        2.000000        0.52148915
      65         -0.523611        2.000000        0.39441987
      66         -0.518084        2.000000        0.31943102
      67         -0.517030        2.000000        0.47326936
      68         -0.517030        2.000000        0.47326936
      69         -0.517030        2.000000        0.47326936
      70         -0.515288        2.000000        0.45367121
      71         -0.515288        2.000000        0.45367121
      72         -0.507271        2.000000        0.35097733
      73         -0.507271        2.000000        0.35097733
      74         -0.507271        2.000000        0.35097733
      75         -0.507036        2.000000        0.36244315
      76         -0.502288        2.000000        0.35697387
      77         -0.502288        2.000000        0.35697387
      78         -0.501957        2.000000        0.34872809
      79         -0.501957        2.000000        0.34872809
      80         -0.501957        2.000000        0.34872809
      81         -0.494592        2.000000        0.42246261
      82         -0.494592        2.000000        0.42246261
      83         -0.494592        2.000000        0.42246261
      84         -0.493490        2.000000        0.46387225
      85         -0.493490        2.000000        0.46387225
      86         -0.493490        2.000000        0.46387225
      87         -0.491905        2.000000        0.36367872
      88         -0.491905        2.000000        0.36367872
      89         -0.491905        2.000000        0.36367872
      90         -0.491487        2.000000        0.38266236
      91         -0.491487        2.000000        0.38266236
      92         -0.491487        2.000000        0.38266236
      93         -0.490033        2.000000        0.34342603
      94         -0.490033        2.000000        0.34342603
      95         -0.488916        2.000000        0.25692610
      96         -0.485843        2.000000        0.31247091
      97         -0.485843        2.000000        0.31247091
      98         -0.485843        2.000000        0.31247091
      99         -0.475339        2.000000        0.24340587
     100         -0.475339        2.000000        0.24340587
     101         -0.475339        2.000000        0.24340587
     102         -0.465303        2.000000        0.07722928
     103         -0.465303        2.000000        0.07722928
     104         -0.465303        2.000000        0.07722928
     105         -0.464123        2.000000        0.08710669
     106         -0.464123        2.000000        0.08710669
     107         -0.464123        2.000000        0.08710669
     108         -0.463405        2.000000        0.09455358
     109         -0.455776        2.000000        0.09605998
     110         -0.455776        2.000000        0.09605998
     111         -0.455776        2.000000        0.09605998
     112         -0.455674        2.000000        0.10034295
     113         -0.455674        2.000000        0.10034295
     114         -0.452428        2.000000        0.08195758
     115         -0.452428        2.000000        0.08195758
     116         -0.452428        2.000000        0.08195758
     117         -0.448691        2.000000        0.12761976
     118         -0.448691        2.000000        0.12761976
     119         -0.448377        2.000000        0.00000000
     120         -0.445128        2.000000        0.06008908
     121         -0.445128        2.000000        0.06008908
     122         -0.445128        2.000000        0.06008908
     123         -0.442448        2.000000        0.06259902
     124         -0.442448        2.000000        0.06259902
     125         -0.442448        2.000000        0.06259902
     126         -0.440103        2.000000        0.09251194
     127         -0.440103        2.000000        0.09251194
     128         -0.439870        2.000000        0.03395963
     129         -0.439870        2.000000        0.03395963
     130         -0.439870        2.000000        0.03395963
     131         -0.437188        2.000000        0.03795827
     132         -0.437188        2.000000        0.03795827
     133         -0.437188        2.000000        0.03795827
     134         -0.431155        2.000000        0.01395811
     135         -0.431155        2.000000        0.01395811
     136         -0.431155        2.000000        0.01395811
     137         -0.429622        2.000000        0.04383973
     138         -0.429622        2.000000        0.04383973
     139         -0.427871        2.000000        0.02910416
     140         -0.427871        2.000000        0.02910416
     141         -0.427871        2.000000        0.02910416
     142         -0.424631        2.000000        0.05486747
     143         -0.424631        2.000000        0.05486747
     144         -0.424631        2.000000        0.05486747
     145         -0.421209        2.000000        0.00000000
     146         -0.420418        2.000000        0.00657067
     147         -0.420418        2.000000        0.00657067
     148         -0.420418        2.000000        0.00657067
     149         -0.337395        0.000000        0.03713561
     150         -0.337395        0.000000        0.03713561
     151         -0.337395        0.000000        0.03713561
     152         -0.331923        0.000000        0.05153166
     153         -0.331076        0.000000        0.02372270
     154         -0.331076        0.000000        0.02372270
     155         -0.328741        0.000000        0.07287473
     156         -0.327991        0.000000        0.00884925
     157         -0.327991        0.000000        0.00884925
     158         -0.325347        0.000000        0.05648193
     159         -0.325347        0.000000        0.05648193
     160         -0.325347        0.000000        0.05648193
     161         -0.323820        0.000000        0.03976098
     162         -0.323820        0.000000        0.03976098
     163         -0.323820        0.000000        0.03976098
     164         -0.318554        0.000000        0.02180078
     165         -0.318554        0.000000        0.02180078
     166         -0.318554        0.000000        0.02180078
     167         -0.313896        0.000000        0.06010680
     168         -0.313896        0.000000        0.06010680
     169         -0.313896        0.000000        0.06010680
     170         -0.311585        0.000000        0.03557003
     171         -0.311585        0.000000        0.03557003
     172         -0.311585        0.000000        0.03557003
     173         -0.311028        0.000000        0.10708269
     174         -0.308877        0.000000        0.00724474
     175         -0.308877        0.000000        0.00724474
     176         -0.308877        0.000000        0.00724474
     177         -0.306026        0.000000        0.03884927
     178         -0.306026        0.000000        0.03884927
     179         -0.304388        0.000000        0.01661588
     180         -0.304388        0.000000        0.01661588
     181         -0.304388        0.000000        0.01661588
     182         -0.300423        0.000000        0.08496423
     183         -0.300423        0.000000        0.08496423
     184         -0.300423        0.000000        0.08496423
     185         -0.298853        0.000000        0.06326211
     186         -0.298853        0.000000        0.06326211
     187         -0.298853        0.000000        0.06326211
     188         -0.298073        0.000000        0.07381928
     189         -0.295959        0.000000        0.05869228
     190         -0.295959        0.000000        0.05869228
     191         -0.295959        0.000000        0.05869228
     192         -0.292684        0.000000        0.00870239
     193         -0.290562        0.000000        0.02642588
     194         -0.290562        0.000000        0.02642588
     195         -0.290562        0.000000        0.02642588
     196         -0.290098        0.000000        0.04150795
     197         -0.290098        0.000000        0.04150795
     198         -0.290098        0.000000        0.04150795
     199         -0.288761        0.000000        0.02990221
     200         -0.288761        0.000000        0.02990221
     201         -0.287921        0.000000        0.03318213
     202         -0.287921        0.000000        0.03318213
     203         -0.287030        0.000000        0.01870891
     204         -0.287030        0.000000        0.01870891
     205         -0.287030        0.000000        0.01870891
     206         -0.278883        0.000000        0.02699610
     207         -0.278883        0.000000        0.02699610
     208         -0.278883        0.000000        0.02699610
     209         -0.277650        0.000000        0.06379985
     210         -0.277650        0.000000        0.06379985
     211         -0.275567        0.000000        0.02766760
     212         -0.275567        0.000000        0.02766760
     213         -0.275567        0.000000        0.02766760
     214         -0.271143        0.000000        0.03840680
     215         -0.271143        0.000000        0.03840680
     216         -0.271143        0.000000        0.03840680
     217         -0.271046        0.000000        0.00000000
     218         -0.269329        0.000000        0.05174619
     219         -0.265970        0.000000        0.02023282
     220         -0.265970        0.000000        0.02023282
     221         -0.265970        0.000000        0.02023282
     222         -0.260723        0.000000        0.02767275
     223         -0.260723        0.000000        0.02767275
     224         -0.260723        0.000000        0.02767275
     225         -0.259543        0.000000        0.00000000
     226         -0.254643        0.000000        0.03304953
     227         -0.254643        0.000000        0.03304953
     228         -0.254643        0.000000        0.03304953
     229         -0.246827        0.000000        0.03333191
     230         -0.246827        0.000000        0.03333191
     231         -0.246827        0.000000        0.03333191
     232         -0.240510        0.000000        0.02316908
     233         -0.240510        0.000000        0.02316908
     234         -0.235683        0.000000        0.02701039
     235         -0.235683        0.000000        0.02701039
     236         -0.235683        0.000000        0.02701039
     237         -0.231026        0.000000        0.01926914
     238         -0.231026        0.000000        0.01926914
     239         -0.228034        0.000000        0.03416689
     240         -0.228034        0.000000        0.03416689
     241         -0.228034        0.000000        0.03416689
     242         -0.227121        0.000000        0.01949593
     243         -0.227121        0.000000        0.01949593
     244         -0.227121        0.000000        0.01949593
     245         -0.224627        0.000000        0.02177875
     246         -0.224627        0.000000        0.02177875
     247         -0.217625        0.000000        0.03232372
     248         -0.212713        0.000000        0.02486045
     249         -0.212713        0.000000        0.02486045
     250         -0.212713        0.000000        0.02486045
     251         -0.210895        0.000000        0.02950755
     252         -0.210895        0.000000        0.02950755
     253         -0.210895        0.000000        0.02950755
     254         -0.207833        0.000000        0.02790146
     255         -0.207833        0.000000        0.02790146
     256         -0.207833        0.000000        0.02790146
     257         -0.201148        0.000000        0.02251082
     258         -0.201148        0.000000        0.02251082
     259         -0.190006        0.000000        0.03904724
     260         -0.190006        0.000000        0.03904724
     261         -0.190006        0.000000        0.03904724
     262         -0.186495        0.000000        0.02790582
     263         -0.186495        0.000000        0.02790582
     264         -0.186495        0.000000        0.02790582
     265         -0.185584        0.000000        0.00814459
     266         -0.185584        0.000000        0.00814459
     267         -0.185584        0.000000        0.00814459
     268         -0.176513        0.000000        0.06367127
     269         -0.176513        0.000000        0.06367127
     270         -0.176513        0.000000        0.06367127
     271         -0.176147        0.000000        0.01580634
     272         -0.176147        0.000000        0.01580634
     273         -0.174610        0.000000        0.00000000
     274         -0.172034        0.000000        0.07123076
     275         -0.159799        0.000000        0.08304993
     276         -0.159799        0.000000        0.08304993
     277         -0.159799        0.000000        0.08304993
     278         -0.156937        0.000000        0.05418440
     279         -0.156937        0.000000        0.05418440
     280         -0.156937        0.000000        0.05418440
     281         -0.151625        0.000000        0.10006048
     282         -0.151625        0.000000        0.10006048
     283         -0.151046        0.000000        0.00000000
     284         -0.149132        0.000000        0.05327694
     285         -0.149132        0.000000        0.05327694
     286         -0.149132        0.000000        0.05327694
     287         -0.147577        0.000000        0.15545266
     288         -0.147577        0.000000        0.15545266
     289         -0.147577        0.000000        0.15545266
     290         -0.128168        0.000000        0.33046970
     291         -0.128168        0.000000        0.33046970
     292         -0.128168        0.000000        0.33046970
     293         -0.124836        0.000000        0.28015199
     294         -0.124836        0.000000        0.28015199
     295         -0.124836        0.000000        0.28015199
     296         -0.124832        0.000000        0.21758281
     297         -0.124832        0.000000        0.21758281
     298         -0.122241        0.000000        0.57584958
     299         -0.116066        0.000000        0.76811979
     300         -0.116066        0.000000        0.76811979
     301         -0.116066        0.000000        0.76811979
     302         -0.112355        0.000000        0.56017097
     303         -0.112355        0.000000        0.56017097
     304         -0.112355        0.000000        0.56017097
     305         -0.111871        0.000000        0.57525346
     306         -0.111871        0.000000        0.57525346
     307         -0.109859        0.000000        0.67790848
     308         -0.109859        0.000000        0.67790848
     309         -0.109609        0.000000        0.85776243
     310         -0.109609        0.000000        0.85776243
     311         -0.109609        0.000000        0.85776243
     312         -0.109245        0.000000        0.93758400
     313         -0.109209        0.000000        0.39429087
     314         -0.109209        0.000000        0.39429087
     315         -0.109209        0.000000        0.39429087
     316         -0.103343        0.000000        0.63699579
     317         -0.103343        0.000000        0.63699579
     318         -0.103343        0.000000        0.63699579
     319         -0.103137        0.000000        0.86289505
     320         -0.103137        0.000000        0.86289505
     321         -0.103137        0.000000        0.86289505
     322         -0.100348        0.000000        0.85673794
     323         -0.100348        0.000000        0.85673794
     324         -0.100348        0.000000        0.85673794
     325         -0.100055        0.000000        0.82493908
     326         -0.100055        0.000000        0.82493908
     327         -0.100055        0.000000        0.82493908
     328         -0.099384        0.000000        0.89931391
     329         -0.094777        0.000000        0.88660706
     330         -0.094777        0.000000        0.88660706
     331         -0.094777        0.000000        0.88660706
     332         -0.094558        0.000000        0.91055746
     333         -0.094558        0.000000        0.91055746
     334         -0.091791        0.000000        0.85849704
     335         -0.091791        0.000000        0.85849704
     336         -0.089410        0.000000        0.64464412
     337         -0.089410        0.000000        0.64464412
     338         -0.089410        0.000000        0.64464412
     339         -0.088869        0.000000        0.84000864
     340         -0.088869        0.000000        0.84000864
     341         -0.088869        0.000000        0.84000864
     342         -0.087022        0.000000        0.85379907
     343         -0.079444        0.000000        0.82800564
     344         -0.079444        0.000000        0.82800564
     345         -0.079444        0.000000        0.82800564
     346         -0.077189        0.000000        0.64457699
     347         -0.077189        0.000000        0.64457699
     348         -0.077189        0.000000        0.64457699
     349         -0.077081        0.000000        0.95447578
     350         -0.072475        0.000000        0.81891026
     351         -0.072475        0.000000        0.81891026
     352         -0.072475        0.000000        0.81891026
     353         -0.072468        0.000000        0.81020618
     354         -0.072468        0.000000        0.81020618
     355         -0.067279        0.000000        0.77522164
     356         -0.067279        0.000000        0.77522164
     357         -0.067279        0.000000        0.77522164
     358         -0.066418        0.000000        0.68802009
     359         -0.066418        0.000000        0.68802009
     360         -0.066418        0.000000        0.68802009
     361         -0.060308        0.000000        0.00000000
     362         -0.059917        0.000000        0.48765851
     363         -0.059917        0.000000        0.48765851
     364         -0.059917        0.000000        0.48765851
     365         -0.058387        0.000000        0.40102389
     366         -0.058387        0.000000        0.40102389
     367         -0.058052        0.000000        0.52286464
     368         -0.054500        0.000000        0.34083034
     369         -0.054500        0.000000        0.34083034
     370         -0.054500        0.000000        0.34083034
     371         -0.051881        0.000000        0.10562429
     372         -0.051881        0.000000        0.10562429
     373         -0.051067        0.000000        0.36383385
     374         -0.051067        0.000000        0.36383385
     375         -0.051067        0.000000        0.36383385
     376         -0.046621        0.000000        0.08224310
     377         -0.046621        0.000000        0.08224310
     378         -0.046621        0.000000        0.08224310
     379         -0.034379        0.000000        0.13407153
     380         -0.034379        0.000000        0.13407153
     381         -0.034379        0.000000        0.13407153
     382         -0.034263        0.000000        0.25191431
     383         -0.034263        0.000000        0.25191431
     384         -0.034263        0.000000        0.25191431
     385         -0.034072        0.000000        0.30604675
     386         -0.034072        0.000000        0.30604675
     387         -0.029890        0.000000        0.09409714
     388         -0.029890        0.000000        0.09409714
     389         -0.029890        0.000000        0.09409714
     390         -0.016605        0.000000        0.08302722
     391         -0.016605        0.000000        0.08302722
     392         -0.016605        0.000000        0.08302722
     393         -0.011465        0.000000        0.00000000
     394         -0.010957        0.000000        0.02100145
     395         -0.010957        0.000000        0.02100145
     396         -0.010957        0.000000        0.02100145
     397          0.010404        0.000000        0.05025262
     398          0.010404        0.000000        0.05025262
     399          0.010404        0.000000        0.05025262
     400          0.020270        0.000000        0.09668542
     401          0.031808        0.000000        0.05597485
     402          0.031808        0.000000        0.05597485
     403          0.033224        0.000000        0.02998826
     404          0.033224        0.000000        0.02998826
     405          0.033224        0.000000        0.02998826
     406          0.061073        0.000000        0.06011885
     407          0.061073        0.000000        0.06011885
     408          0.061073        0.000000        0.06011885
     409          0.062440        0.000000        0.08347738
     410          0.062440        0.000000        0.08347738
     411          0.062440        0.000000        0.08347738
     412          0.070267        0.000000        0.05472471
     413          0.070267        0.000000        0.05472471
     414          0.110437        0.000000        0.06388486
     415          0.110437        0.000000        0.06388486
     416          0.110437        0.000000        0.06388486
     417          0.125109        0.000000        0.04551712
     418          0.131939        0.000000        0.07022226
     419          0.131939        0.000000        0.07022226
     420          0.131939        0.000000        0.07022226
     421          0.139395        0.000000        0.07002899
     422          0.139395        0.000000        0.07002899
     423          0.139395        0.000000        0.07002899
     424          0.171930        0.000000        0.03681365
     425          0.171930        0.000000        0.03681365
     426          0.174622        0.000000        0.02105192
     427          0.174622        0.000000        0.02105192
     428          0.174622        0.000000        0.02105192
     429          0.182743        0.000000        0.02579764
     430          0.182743        0.000000        0.02579764
     431          0.182743        0.000000        0.02579764
     432          0.185481        0.000000        0.10488639
     433          0.185481        0.000000        0.10488639
     434          0.187418        0.000000        0.05589411
     435          0.217663        0.000000        0.04635107
     436          0.217663        0.000000        0.04635107
     437          0.217663        0.000000        0.04635107
     438          0.217675        0.000000        0.02169593
     439          0.217675        0.000000        0.02169593
     440          0.217675        0.000000        0.02169593
     441          0.236098        0.000000        0.00000000
     442          0.237604        0.000000        0.06278204
     443          0.237604        0.000000        0.06278204
     444          0.237604        0.000000        0.06278204
     445          0.270783        0.000000        0.04833615
     446          0.270783        0.000000        0.04833615
     447          0.270783        0.000000        0.04833615
     448          0.271387        0.000000        0.00000000
