# Projected DOS for atomic kind Si at iteration step i = 0, E(Fermi) =    -0.420418 a.u.
#     MO Eigenvalue [a.u.]      Occupation                 s                py                pz                px               d-2               d-1                d0               d+1               d+2
       1         -0.724906        2.000000        0.92423269        0.00941926        0.00941926        0.00941926        0.00359173        0.00359173        0.00053297        0.00359173        0.00053297
       2         -0.717483        2.000000        0.84079028        0.01402446        0.02413420        0.01402609        0.01228818        0.01169861        0.00446438        0.01169851        0.00217440
       3         -0.717483        2.000000        0.84079028        0.01638960        0.01940555        0.01638960        0.01201237        0.01183646        0.00366100        0.01183646        0.00297779
       4         -0.717483        2.000000        0.84079028        0.02177069        0.00864500        0.02176906        0.01138474        0.01215023        0.00183279        0.01215032        0.00480599
       5         -0.708424        2.000000        0.75016662        0.02598339        0.01907772        0.02398154        0.03119435        0.02918986        0.00270464        0.02837159        0.00230683
       6         -0.708424        2.000000        0.75016662        0.02001503        0.02901259        0.02001503        0.02713337        0.03081122        0.00220265        0.03081122        0.00280882
       7         -0.708424        2.000000        0.75016662        0.02304423        0.02095234        0.02504608        0.03042808        0.02875472        0.00260992        0.02957300        0.00240155
       8         -0.705880        2.000000        0.73980230        0.02324691        0.02324691        0.02324691        0.02196719        0.02196719        0.00860458        0.02196719        0.00860458
       9         -0.704611        2.000000        0.72576766        0.01644624        0.04843179        0.01635112        0.03165532        0.01344916        0.01782585        0.01350314        0.00597071
      10         -0.704611        2.000000        0.72576766        0.03770652        0.00572098        0.03780165        0.00741643        0.02562259        0.00597071        0.02556861        0.01782585
      11         -0.698800        2.000000        0.63385456        0.02730682        0.02730682        0.02730682        0.06635720        0.06635720        0.00123168        0.06635720        0.00123168
      12         -0.697959        2.000000        0.65310364        0.02734966        0.02820270        0.02734966        0.05450837        0.05725271        0.00208886        0.05725271        0.00354547
      13         -0.697959        2.000000        0.65310364        0.02764869        0.02760483        0.02764849        0.05643179        0.05629132        0.00285453        0.05629068        0.00277980
      14         -0.697959        2.000000        0.65310364        0.02790367        0.02709448        0.02790386        0.05807363        0.05546976        0.00350811        0.05547039        0.00212622
      15         -0.695046        2.000000        0.65420455        0.03505103        0.03227710        0.03049660        0.04943526        0.04667215        0.00374736        0.05374005        0.00391033
      16         -0.695046        2.000000        0.65420455        0.02518501        0.03850754        0.03413217        0.05910413        0.05231409        0.00528051        0.03842924        0.00237718
      17         -0.695046        2.000000        0.65420455        0.03758869        0.02704008        0.03319596        0.04130807        0.05086122        0.00245866        0.05767818        0.00519903
      18         -0.687045        2.000000        0.61757246        0.02592198        0.03640607        0.02592198        0.06389339        0.04638940        0.00218165        0.04638940        0.00110544
      19         -0.687045        2.000000        0.61757246        0.03291138        0.02242729        0.03291138        0.04055474        0.05805873        0.00110544        0.05805873        0.00218165
      20         -0.684589        2.000000        0.58274927        0.03502603        0.04944896        0.03502603        0.05920388        0.05387954        0.01082662        0.05387954        0.00708392
      21         -0.684589        2.000000        0.58274927        0.05968881        0.03941508        0.02039712        0.05549980        0.04847916        0.00887380        0.06298401        0.00903674
      22         -0.684589        2.000000        0.58274927        0.02478617        0.03063698        0.06407786        0.05225929        0.06460426        0.00716539        0.05009942        0.01074515
      23         -0.679988        2.000000        0.59383483        0.04344304        0.02460138        0.04344305        0.02515400        0.04360200        0.00649138        0.04360200        0.01140831
      24         -0.679988        2.000000        0.59383483        0.02464922        0.06218903        0.02464921        0.06195632        0.02520084        0.01384805        0.02520084        0.00405165
      25         -0.679988        2.000000        0.59383483        0.04339520        0.02469706        0.04339520        0.02524768        0.04355516        0.00651011        0.04355516        0.01138959
      26         -0.672935        2.000000        0.55691467        0.04665808        0.03877754        0.04400952        0.04897275        0.05190767        0.00664718        0.05339340        0.00809355
      27         -0.672935        2.000000        0.55691467        0.05277970        0.03919481        0.03747062        0.04920683        0.04823963        0.00671622        0.05682737        0.00802451
      28         -0.672935        2.000000        0.55691467        0.03000735        0.05147279        0.04796499        0.05609425        0.05412652        0.00874770        0.04405306        0.00599304
      29         -0.659838        2.000000        0.48950099        0.05470151        0.05470151        0.05470151        0.04696498        0.04696498        0.01558039        0.04696498        0.01558039
      30         -0.659265        2.000000        0.48399413        0.03648502        0.08018251        0.03648498        0.06668958        0.03773495        0.02319913        0.03773497        0.00799862
      31         -0.659265        2.000000        0.48399413        0.06561666        0.02191916        0.06561669        0.02808342        0.05703805        0.00799862        0.05703803        0.02319913
      32         -0.638123        2.000000        0.43236461        0.06376075        0.05105868        0.06601770        0.04013468        0.05300234        0.00901365        0.05106093        0.01355823
      33         -0.638123        2.000000        0.43236461        0.07109364        0.06623450        0.04350899        0.05318883        0.03364048        0.01275362        0.05736864        0.00981826
      34         -0.638123        2.000000        0.43236461        0.04598274        0.06354396        0.07131044        0.05087444        0.05755512        0.01209055        0.03576838        0.01048133
      35         -0.635324        2.000000        0.39745028        0.06974384        0.02775775        0.06974384        0.02709402        0.06886395        0.00748627        0.06886395        0.01826520
      36         -0.635324        2.000000        0.39745028        0.05909523        0.04905495        0.05909523        0.04828158        0.05827017        0.01158693        0.05827017        0.01416453
      37         -0.635324        2.000000        0.39745028        0.03840635        0.09043272        0.03840635        0.08944631        0.03768780        0.01955400        0.03768780        0.00619747
      38         -0.625155        2.000000        0.39394611        0.06586448        0.08338887        0.06586448        0.04887679        0.03979200        0.01338695        0.03979200        0.01401097
      39         -0.625155        2.000000        0.39394611        0.07217467        0.07076849        0.07217467        0.04233428        0.04306326        0.01372400        0.04306326        0.01367392
      40         -0.625155        2.000000        0.39394611        0.07707868        0.06096048        0.07707868        0.03724972        0.04560553        0.01398594        0.04560553        0.01341198
      41         -0.620705        2.000000        0.38394320        0.05778905        0.08052935        0.05778905        0.03688150        0.04818428        0.01008615        0.04818428        0.00292725
      42         -0.620705        2.000000        0.38394320        0.07294925        0.05020894        0.07294925        0.05195187        0.04064909        0.00292725        0.04064909        0.01008615
      43         -0.607191        2.000000        0.32063314        0.07510208        0.07726050        0.07510208        0.04844222        0.04815210        0.00274740        0.04815210        0.00295332
      44         -0.607191        2.000000        0.32063314        0.07923201        0.06900064        0.07923201        0.04733200        0.04870721        0.00333843        0.04870721        0.00236229
      45         -0.607191        2.000000        0.32063314        0.07313057        0.08120352        0.07313057        0.04897221        0.04788711        0.00246526        0.04788711        0.00323546
      46         -0.605292        2.000000        0.32049172        0.08387635        0.08387635        0.08387635        0.04082524        0.04082524        0.00518492        0.04082524        0.00518492
      47         -0.597891        2.000000        0.33520233        0.10349336        0.09771532        0.10666552        0.04948035        0.05379174        0.00576221        0.05226368        0.00590056
      48         -0.597891        2.000000        0.33520233        0.12390891        0.10536353        0.07860176        0.05316456        0.04027319        0.00586998        0.06209803        0.00579279
      49         -0.597891        2.000000        0.33520233        0.08047193        0.10479535        0.12260692        0.05289086        0.06147085        0.00586197        0.04117406        0.00580080
      50         -0.592747        2.000000        0.29130321        0.05947878        0.13219719        0.05947878        0.11020596        0.04286248        0.01999617        0.04286248        0.00590943
      51         -0.592747        2.000000        0.29130321        0.10795772        0.03523930        0.10795772        0.02041465        0.08775813        0.00590943        0.08775813        0.01999617
      52         -0.592147        2.000000        0.28667421        0.09635393        0.09635393        0.09635393        0.05510109        0.05510109        0.01263635        0.05510109        0.01263635
      53         -0.578897        2.000000        0.25918168        0.11952551        0.12276968        0.12391021        0.04078700        0.03748084        0.00327187        0.05019112        0.00331343
      54         -0.578897        2.000000        0.25918168        0.12457519        0.11996743        0.12166279        0.04891011        0.04399562        0.00335491        0.03555322        0.00323038
      55         -0.578897        2.000000        0.25918168        0.12210470        0.12346830        0.12063240        0.03876185        0.04698249        0.00325116        0.04271461        0.00333413
      56         -0.552733        2.000000        0.20129601        0.11086738        0.12913190        0.11086738        0.08142334        0.06404089        0.00708273        0.06404089        0.00478692
      57         -0.552733        2.000000        0.20129601        0.11046533        0.12993600        0.11046533        0.08218861        0.06365826        0.00715854        0.06365826        0.00471111
      58         -0.552733        2.000000        0.20129601        0.12953395        0.09179876        0.12953395        0.04589317        0.08180598        0.00356321        0.08180598        0.00830645
      59         -0.535780        2.000000        0.01238647        0.08511698        0.10967238        0.12676969        0.04198056        0.04902591        0.01917799        0.03186192        0.01820267
      60         -0.535780        2.000000        0.01238647        0.14942964        0.08813898        0.08399043        0.03310721        0.03139770        0.01495399        0.05836347        0.02242667
      61         -0.535780        2.000000        0.01238647        0.08701243        0.12374768        0.11079893        0.04778062        0.04244478        0.02193901        0.03264299        0.01544165
      62         -0.533425        2.000000        0.00538561        0.08500580        0.10460282        0.12493635        0.04499321        0.05458686        0.01161859        0.03574706        0.01163456
      63         -0.533425        2.000000        0.00538561        0.14752210        0.08527205        0.08175082        0.03587268        0.03421131        0.01098981        0.06524313        0.01226335
      64         -0.533425        2.000000        0.00538561        0.08201707        0.12467009        0.10785780        0.05446123        0.04652895        0.01227133        0.03433693        0.01098183
      65         -0.523611        2.000000        0.04267826        0.14226728        0.14226728        0.14226728        0.03482273        0.03482273        0.01581592        0.03482273        0.01581592
      66         -0.518084        2.000000        0.08639968        0.11946439        0.11946439        0.11946439        0.06823933        0.06823933        0.01552907        0.06823933        0.01552907
      67         -0.517030        2.000000        0.00870537        0.15295087        0.06823215        0.15295087        0.01371395        0.04692654        0.02078013        0.04692654        0.01554421
      68         -0.517030        2.000000        0.00870537        0.11112425        0.15188541        0.11112425        0.04650884        0.03052910        0.01690257        0.03052910        0.01942176
      69         -0.517030        2.000000        0.00870537        0.11005878        0.15401634        0.11005878        0.04734424        0.03011140        0.01680380        0.03011140        0.01952054
      70         -0.515288        2.000000        0.00841113        0.15402791        0.09079660        0.15402776        0.01756606        0.04213849        0.02415085        0.04213855        0.01307144
      71         -0.515288        2.000000        0.00841113        0.11187361        0.17510492        0.11187376        0.05032933        0.02575691        0.01307144        0.02575685        0.02415085
      72         -0.507271        2.000000        0.00801316        0.16365975        0.18010146        0.18536576        0.01169283        0.01132510        0.03720454        0.01284132        0.03881875
      73         -0.507271        2.000000        0.00801316        0.20197147        0.16276643        0.16438908        0.01290372        0.01279038        0.04095976        0.01016515        0.03506353
      74         -0.507271        2.000000        0.00801316        0.16349576        0.18625908        0.17937214        0.01126270        0.01174377        0.03587064        0.01285278        0.04015265
      75         -0.507036        2.000000        0.01024026        0.17444804        0.17444804        0.17444804        0.01441554        0.01441554        0.03036293        0.01441554        0.03036293
      76         -0.502288        2.000000        0.01184403        0.18391129        0.14563440        0.18392208        0.01824098        0.02357518        0.03421061        0.02357368        0.01811388
      77         -0.502288        2.000000        0.01184403        0.15840055        0.19667745        0.15838977        0.02535224        0.02001805        0.01811388        0.02001955        0.03421061
      78         -0.501957        2.000000        0.01072674        0.16894329        0.17473830        0.16894311        0.02203642        0.02412929        0.02932214        0.02412922        0.02830340
      79         -0.501957        2.000000        0.01072674        0.17417337        0.16960313        0.16884820        0.02389093        0.02416356        0.02864509        0.02224044        0.02898045
      80         -0.501957        2.000000        0.01072674        0.16950804        0.16828327        0.17483339        0.02436758        0.02200208        0.02847108        0.02392527        0.02915446
      81         -0.494592        2.000000        0.00734591        0.14165321        0.15760274        0.14165321        0.03313883        0.02669799        0.02402077        0.02669799        0.01872674
      82         -0.494592        2.000000        0.00734591        0.14678323        0.14684150        0.14728443        0.02879316        0.02897203        0.02134183        0.02876963        0.02140567
      83         -0.494592        2.000000        0.00734591        0.15247272        0.13646492        0.15197151        0.02460283        0.03086480        0.01875866        0.03106720        0.02398885
      84         -0.493490        2.000000        0.00564335        0.10678454        0.14538104        0.15005249        0.03226030        0.03246897        0.01610524        0.03053629        0.01689552
      85         -0.493490        2.000000        0.00564335        0.17799748        0.10845928        0.11576131        0.03061110        0.03093726        0.01739537        0.03371720        0.01560538
      86         -0.493490        2.000000        0.00564335        0.11743605        0.14837775        0.13640427        0.03239416        0.03185933        0.01600053        0.03101207        0.01700023
      87         -0.491905        2.000000        0.01211339        0.15753676        0.15916512        0.15942006        0.03736041        0.03714256        0.01622928        0.03875188        0.01860183
      88         -0.491905        2.000000        0.01211339        0.15851102        0.15913609        0.15847483        0.03738522        0.03795028        0.01630450        0.03791935        0.01852660
      89         -0.491905        2.000000        0.01211339        0.16007416        0.15782073        0.15822705        0.03850923        0.03816201        0.01971288        0.03658361        0.01511823
      90         -0.491487        2.000000        0.01152427        0.15667037        0.15666428        0.15684959        0.03634339        0.03352955        0.01230515        0.03625097        0.01720007
      91         -0.491487        2.000000        0.01152427        0.15672023        0.15674378        0.15672023        0.03513624        0.03549383        0.01535489        0.03549383        0.01415033
      92         -0.491487        2.000000        0.01152427        0.15679364        0.15677618        0.15661442        0.03464428        0.03710053        0.01659779        0.03437911        0.01290743
      93         -0.490033        2.000000        0.01390300        0.12514284        0.21171756        0.16118698        0.03346157        0.03430283        0.02777795        0.03490292        0.01417832
      94         -0.490033        2.000000        0.01390300        0.20688875        0.12031403        0.17084461        0.03498331        0.03414205        0.01417832        0.03354196        0.02777795
      95         -0.488916        2.000000        0.03593560        0.18329032        0.18329032        0.18329032        0.03884913        0.03884913        0.02035996        0.03884913        0.02035996
      96         -0.485843        2.000000        0.02103209        0.17203693        0.17142848        0.17203252        0.05541206        0.03643280        0.01025079        0.03629428        0.01260913
      97         -0.485843        2.000000        0.02103209        0.17178890        0.17203274        0.17167630        0.03642599        0.04762553        0.01201375        0.04408763        0.01084618
      98         -0.485843        2.000000        0.02103209        0.17167211        0.17203671        0.17178911        0.03630109        0.04408081        0.01202535        0.04775724        0.01083458
      99         -0.475339        2.000000        0.03450234        0.13678342        0.19832110        0.19278704        0.05887018        0.05798886        0.01582788        0.04907008        0.01244324
     100         -0.475339        2.000000        0.03450234        0.25479923        0.12796074        0.14513159        0.04766504        0.05039956        0.01050199        0.06786452        0.01776913
     101         -0.475339        2.000000        0.03450234        0.13630891        0.20160972        0.18997293        0.05939390        0.05754070        0.01607681        0.04899451        0.01219431
     102         -0.465303        2.000000        0.00657883        0.22179756        0.30450124        0.22289719        0.02606845        0.02238448        0.06505553        0.02233484        0.03115259
     103         -0.465303        2.000000        0.00657883        0.25852178        0.23215244        0.25852178        0.02280231        0.02399274        0.04266306        0.02399274        0.05354506
     104         -0.465303        2.000000        0.00657883        0.26887665        0.21254232        0.26777702        0.02191702        0.02441056        0.03659359        0.02446020        0.05961453
     105         -0.464123        2.000000        0.00945261        0.24388841        0.23771396        0.23940051        0.03497929        0.03461883        0.03772051        0.03365965        0.04145954
     106         -0.464123        2.000000        0.00945261        0.23735435        0.24380845        0.23984008        0.03367674        0.03452488        0.04206870        0.03505615        0.03711135
     107         -0.464123        2.000000        0.00945261        0.23976012        0.23948047        0.24176229        0.03460174        0.03411406        0.03898086        0.03454197        0.04019919
     108         -0.463405        2.000000        0.01435317        0.22893191        0.22893191        0.22893191        0.04196160        0.04196160        0.03920636        0.04196160        0.03920636
     109         -0.455776        2.000000        0.00843833        0.27617743        0.18805675        0.27617757        0.01762687        0.02494125        0.05259997        0.02494124        0.03498061
     110         -0.455776        2.000000        0.00843833        0.18864461        0.36312268        0.18864446        0.03215805        0.01767566        0.02634721        0.01767567        0.06123336
     111         -0.455776        2.000000        0.00843833        0.27558971        0.18923233        0.27558971        0.01772445        0.02489246        0.05242368        0.02489246        0.03515689
     112         -0.455674        2.000000        0.00364468        0.20148330        0.33157556        0.20148440        0.02360362        0.02626101        0.06136579        0.02626103        0.02397766
     113         -0.455674        2.000000        0.00364468        0.28821221        0.15811994        0.28821111        0.02714682        0.02448943        0.02397766        0.02448941        0.06136579
     114         -0.452428        2.000000        0.01031138        0.24330571        0.21167528        0.24330574        0.04082576        0.06143640        0.01797821        0.06143639        0.02776757
     115         -0.452428        2.000000        0.01031138        0.22746998        0.24334679        0.22746995        0.06146315        0.05111769        0.02532976        0.05111770        0.02041602
     116         -0.452428        2.000000        0.01031138        0.22751103        0.24326466        0.22751103        0.06140964        0.05114446        0.02531069        0.05114446        0.02043508
     117         -0.448691        2.000000        0.02351140        0.16630483        0.33239024        0.16630485        0.08042692        0.02537213        0.04106991        0.02537213        0.01162783
     118         -0.448691        2.000000        0.02351140        0.27702845        0.11094304        0.27702843        0.00702053        0.06207532        0.01162783        0.06207533        0.04106991
     119         -0.448377        2.000000        0.00000000        0.28720023        0.28720023        0.28720023        0.00677899        0.00677899        0.05903117        0.00677899        0.05903117
     120         -0.445128        2.000000        0.00664851        0.26981117        0.30745830        0.20783889        0.02443440        0.01466141        0.05384347        0.02074110        0.03447368
     121         -0.445128        2.000000        0.00664851        0.28659123        0.19389639        0.30462073        0.01329361        0.02415603        0.02980625        0.02238727        0.05851090
     122         -0.445128        2.000000        0.00664851        0.22870595        0.28375366        0.27264874        0.02210890        0.02101947        0.04882600        0.01670854        0.03949115
     123         -0.442448        2.000000        0.00638046        0.29941869        0.18130144        0.29941870        0.01942548        0.04678335        0.01152908        0.04678335        0.02636043
     124         -0.442448        2.000000        0.00638046        0.18502968        0.41007948        0.18502968        0.07241418        0.02028900        0.03307390        0.02028900        0.00481560
     125         -0.442448        2.000000        0.00638046        0.29569046        0.18875791        0.29569046        0.02115252        0.04591983        0.01223128        0.04591983        0.02565823
     126         -0.440103        2.000000        0.01364778        0.12907147        0.42888081        0.12907148        0.08958229        0.02844161        0.05107216        0.02844161        0.00927886
     127         -0.440103        2.000000        0.01364778        0.32894437        0.02913503        0.32894436        0.00806139        0.06920206        0.00927886        0.06920207        0.05107216
     128         -0.439870        2.000000        0.00155644        0.30571165        0.31780668        0.18527939        0.03558270        0.02288008        0.03393456        0.03442340        0.02886547
     129         -0.439870        2.000000        0.00155644        0.32850396        0.15372467        0.32656910        0.01985559        0.03642257        0.02530782        0.03660802        0.03749222
     130         -0.439870        2.000000        0.00155644        0.17458212        0.33726637        0.29694923        0.03744789        0.03358353        0.03495767        0.02185476        0.02784236
     131         -0.437188        2.000000        0.00813542        0.21335753        0.34904518        0.21335753        0.04112453        0.02794932        0.05193755        0.02794932        0.02918534
     132         -0.437188        2.000000        0.00813542        0.29445999        0.18684060        0.29445964        0.02537454        0.03582430        0.03153861        0.03582434        0.04958428
     133         -0.437188        2.000000        0.00813542        0.26794272        0.23987445        0.26794307        0.03052410        0.03324955        0.03820818        0.03324952        0.04291471
     134         -0.431155        2.000000        0.00154813        0.28865578        0.28826800        0.28831427        0.01940706        0.01960737        0.02870251        0.02108577        0.03045300
     135         -0.431155        2.000000        0.00154813        0.28795749        0.28868798        0.28859257        0.02122519        0.02081215        0.03124316        0.01806286        0.02791235
     136         -0.431155        2.000000        0.00154813        0.28862478        0.28828206        0.28833120        0.01946795        0.01968068        0.02878760        0.02095157        0.03036792
     137         -0.429622        2.000000        0.00706468        0.33585399        0.07670357        0.33585652        0.01084344        0.06428646        0.01148752        0.06428594        0.04977815
     138         -0.429622        2.000000        0.00706468        0.16308873        0.42223915        0.16308620        0.08210046        0.02865743        0.04977815        0.02865795        0.01148752
     139         -0.427871        2.000000        0.00322659        0.28054025        0.27785873        0.24801020        0.03786000        0.02692561        0.02997581        0.03884231        0.02765635
     140         -0.427871        2.000000        0.00322659        0.23697520        0.28466157        0.28477241        0.04035207        0.04039268        0.03084702        0.02288317        0.02678513
     141         -0.427871        2.000000        0.00322659        0.28889373        0.24388888        0.27362657        0.02541585        0.03630963        0.02562540        0.04190244        0.03200676
     142         -0.424631        2.000000        0.01289652        0.29134920        0.07636206        0.29134920        0.02335254        0.11890011        0.00315469        0.11890011        0.00886812
     143         -0.424631        2.000000        0.01289652        0.07813754        0.50498372        0.07593919        0.21384652        0.02316461        0.01169788        0.02414163        0.00032493
     144         -0.424631        2.000000        0.01289652        0.28957371        0.07771467        0.29177207        0.02395369        0.11908804        0.00318165        0.11811102        0.00884116