# Projected DOS for list 2 of 17 atoms, at iteration step i = 0, E(Fermi) =    -0.420418 a.u.
#     MO Eigenvalue [a.u.]      Occupation                 s                py                pz                px               d-2               d-1                d0               d+1               d+2
       1         -0.724906        2.000000        0.55627745        0.00276194        0.00276194        0.00276194        0.00069074        0.00069074        0.00005170        0.00069074        0.00005170
       2         -0.717483        2.000000        0.32760325        0.00556915        0.01267157        0.00557030        0.00493084        0.00335941        0.00214602        0.00335916        0.00099983
       3         -0.717483        2.000000        0.32760325        0.00723074        0.00934954        0.00723074        0.00419571        0.00372685        0.00174391        0.00372685        0.00140195
       4         -0.717483        2.000000        0.32760325        0.01101112        0.00178991        0.01100998        0.00252286        0.00456315        0.00082885        0.00456340        0.00231700
       5         -0.708424        2.000000        0.18212408        0.01101295        0.00815415        0.01018423        0.01305888        0.01134926        0.00071936        0.01065135        0.00072278
       6         -0.708424        2.000000        0.18212408        0.00854218        0.01226698        0.00854218        0.00959527        0.01273211        0.00072368        0.01273211        0.00071846
       7         -0.708424        2.000000        0.18212408        0.00979620        0.00893020        0.01062493        0.01240533        0.01097812        0.00072017        0.01167603        0.00072197
       8         -0.705880        2.000000        0.12657998        0.01408846        0.01408846        0.01408846        0.00969199        0.00969199        0.00269981        0.00969199        0.00269981
       9         -0.704611        2.000000        0.12386613        0.00814313        0.02684566        0.00808751        0.01283390        0.00361638        0.01011155        0.00364372        0.00218467
      10         -0.704611        2.000000        0.12386613        0.02057440        0.00187187        0.02063002        0.00056210        0.00977962        0.00218467        0.00975229        0.01011155
      11         -0.698800        2.000000        0.26121067        0.02184090        0.02184090        0.02184090        0.05020992        0.05020992        0.00004161        0.05020992        0.00004161
      12         -0.697959        2.000000        0.18147796        0.01201500        0.00708150        0.01201500        0.02050392        0.03257258        0.00073630        0.03257258        0.00174311
      13         -0.697959        2.000000        0.18147796        0.01028557        0.01053923        0.01028671        0.02896244        0.02834471        0.00126553        0.02834193        0.00121388
      14         -0.697959        2.000000        0.18147796        0.00881093        0.01349078        0.00880980        0.03618272        0.02473179        0.00171729        0.02473457        0.00076213
      15         -0.695046        2.000000        0.18783334        0.01067580        0.00877913        0.00756172        0.01686618        0.01453015        0.00090685        0.02050560        0.00093811
      16         -0.695046        2.000000        0.18783334        0.00392993        0.01303919        0.01004753        0.02504059        0.01930005        0.00120092        0.00756129        0.00064405
      17         -0.695046        2.000000        0.18783334        0.01241093        0.00519833        0.00940740        0.00999516        0.01807174        0.00065968        0.02383504        0.00118529
      18         -0.687045        2.000000        0.03296326        0.00859855        0.00582109        0.00859855        0.01662331        0.01452279        0.00025067        0.01452279        0.00003576
      19         -0.687045        2.000000        0.03296326        0.00674691        0.00952438        0.00674691        0.01382262        0.01592314        0.00003576        0.01592314        0.00025067
      20         -0.684589        2.000000        0.25837314        0.01662117        0.02459383        0.01662117        0.02834633        0.02574168        0.00601853        0.02574168        0.00382863
      21         -0.684589        2.000000        0.25837314        0.03025419        0.01904733        0.00853465        0.02653430        0.02309983        0.00487592        0.03019555        0.00497125
      22         -0.684589        2.000000        0.25837314        0.01096081        0.01419500        0.03268035        0.02494906        0.03098817        0.00387630        0.02389246        0.00597086
      23         -0.679988        2.000000        0.02837567        0.01269178        0.00820191        0.01269178        0.00645119        0.01037752        0.00202192        0.01037752        0.00602914
      24         -0.679988        2.000000        0.02837567        0.00821331        0.01715884        0.00821331        0.01428391        0.00646116        0.00801750        0.00646116        0.00003357
      25         -0.679988        2.000000        0.02837567        0.01268038        0.00822471        0.01268038        0.00647113        0.01036755        0.00203718        0.01036755        0.00601388
      26         -0.672935        2.000000        0.08332222        0.01639205        0.01357137        0.01544405        0.02078719        0.02118142        0.00198018        0.02138099        0.00250562
      27         -0.672935        2.000000        0.08332222        0.01858315        0.01372072        0.01310359        0.02081863        0.02068872        0.00200526        0.02184226        0.00248054
      28         -0.672935        2.000000        0.08332222        0.01043227        0.01811537        0.01685983        0.02174379        0.02147947        0.00274326        0.02012636        0.00174254
      29         -0.659838        2.000000        0.21141813        0.01776727        0.01776727        0.01776727        0.01756012        0.01756012        0.01287699        0.01756012        0.01287699
      30         -0.659265        2.000000        0.18652374        0.00348078        0.01371624        0.00348077        0.01301321        0.00415848        0.01019867        0.00415849        0.00352303
      31         -0.659265        2.000000        0.18652374        0.01030442        0.00006895        0.01030442        0.00120691        0.01006164        0.00352303        0.01006163        0.01019867
      32         -0.638123        2.000000        0.04419974        0.01780754        0.01771068        0.01782475        0.01640271        0.01950017        0.00347760        0.01903284        0.00248592
      33         -0.638123        2.000000        0.04419974        0.01786346        0.01782641        0.01765311        0.01954506        0.01483944        0.00266150        0.02055122        0.00330203
      34         -0.638123        2.000000        0.04419974        0.01767197        0.01780589        0.01786511        0.01898795        0.02059611        0.00280619        0.01535167        0.00315734
      35         -0.635324        2.000000        0.03123533        0.02755379        0.00092353        0.02755379        0.00223135        0.02991261        0.00145100        0.02991261        0.00407798
      36         -0.635324        2.000000        0.03123533        0.02079977        0.01443158        0.02079977        0.01627251        0.02289203        0.00245039        0.02289203        0.00307859
      37         -0.635324        2.000000        0.03123533        0.00767756        0.04067600        0.00767756        0.04355271        0.00925193        0.00439208        0.00925193        0.00113691
      38         -0.625155        2.000000        0.08657964        0.03144251        0.03322099        0.03144251        0.02413354        0.01698356        0.00242183        0.01698356        0.00338398
      39         -0.625155        2.000000        0.08657964        0.03208291        0.03194020        0.03208291        0.01898440        0.01955813        0.00294151        0.01955813        0.00286430
      40         -0.625155        2.000000        0.08657964        0.03258059        0.03094482        0.03258059        0.01498272        0.02155897        0.00334538        0.02155897        0.00246043
      41         -0.620705        2.000000        0.00595991        0.01858956        0.01633544        0.01858956        0.01078888        0.01349648        0.00223463        0.01349648        0.00061034
      42         -0.620705        2.000000        0.00595991        0.01708681        0.01934093        0.01708681        0.01439902        0.01169142        0.00061034        0.01169142        0.00223463
      43         -0.607191        2.000000        0.04226189        0.02602680        0.02872511        0.02602680        0.00986963        0.00867379        0.00072538        0.00867379        0.00071588
      44         -0.607191        2.000000        0.04226189        0.03118976        0.01839918        0.03118976        0.00529336        0.01096193        0.00069812        0.01096193        0.00074314
      45         -0.607191        2.000000        0.04226189        0.02356214        0.03365442        0.02356214        0.01205422        0.00758150        0.00073839        0.00758150        0.00070287
      46         -0.605292        2.000000        0.03671592        0.03810402        0.03810402        0.03810402        0.00543528        0.00543528        0.00061911        0.00543528        0.00061911
      47         -0.597891        2.000000        0.17215261        0.02788965        0.02463507        0.02967641        0.01334575        0.01624451        0.00265905        0.01521712        0.00265603
      48         -0.597891        2.000000        0.17215261        0.03938900        0.02894305        0.01386908        0.01582282        0.00715532        0.00265669        0.02182923        0.00265838
      49         -0.597891        2.000000        0.17215261        0.01492248        0.02862301        0.03865564        0.01563880        0.02140755        0.00265687        0.00776102        0.00265820
      50         -0.592747        2.000000        0.14412179        0.01047847        0.04190749        0.01047847        0.04072067        0.01109057        0.01027475        0.01109057        0.00335311
      51         -0.592747        2.000000        0.14412179        0.03143115        0.00000213        0.03143115        0.00121388        0.03084397        0.00335311        0.03084397        0.01027475
      52         -0.592147        2.000000        0.15976007        0.06324024        0.06324024        0.06324024        0.02784925        0.02784925        0.00367186        0.02784925        0.00367186
      53         -0.578897        2.000000        0.14992821        0.04094899        0.04269778        0.04331259        0.01054980        0.00939829        0.00066141        0.01382520        0.00072633
      54         -0.578897        2.000000        0.14992821        0.04367105        0.04118721        0.04210110        0.01337904        0.01166735        0.00079113        0.00872691        0.00059661
      55         -0.578897        2.000000        0.14992821        0.04233932        0.04307437        0.04154566        0.00984445        0.01270766        0.00062907        0.01122118        0.00075867
      56         -0.552733        2.000000        0.17175296        0.03252238        0.03987882        0.03252238        0.03078379        0.02178446        0.00213842        0.02178446        0.00130756
      57         -0.552733        2.000000        0.17175296        0.03236045        0.04020268        0.03236045        0.03117999        0.02158637        0.00216586        0.02158637        0.00128013
      58         -0.552733        2.000000        0.17175296        0.04004075        0.02484208        0.04004075        0.01238894        0.03098189        0.00086469        0.03098189        0.00258129
      59         -0.535780        2.000000        0.00718509        0.00108521        0.00211607        0.00283382        0.00112159        0.00119683        0.00175710        0.00101353        0.00167290
      60         -0.535780        2.000000        0.00718509        0.00378511        0.00121208        0.00103792        0.00102683        0.00100857        0.00139245        0.00129655        0.00203755
      61         -0.535780        2.000000        0.00718509        0.00116479        0.00270696        0.00216336        0.00118353        0.00112655        0.00199545        0.00102187        0.00143455
      62         -0.533425        2.000000        0.00006205        0.00121282        0.00086300        0.00050003        0.00023980        0.00016866        0.00105543        0.00030837        0.00104522
      63         -0.533425        2.000000        0.00006205        0.00009687        0.00120806        0.00127092        0.00030744        0.00031976        0.00145751        0.00008963        0.00064314
      64         -0.533425        2.000000        0.00006205        0.00126617        0.00050479        0.00080490        0.00016959        0.00022841        0.00063803        0.00031883        0.00146262
      65         -0.523611        2.000000        0.03299749        0.01820900        0.01820900        0.01820900        0.00571821        0.00571821        0.00000407        0.00571821        0.00000407
      66         -0.518084        2.000000        0.08520339        0.03819900        0.03819900        0.03819900        0.03245296        0.03245296        0.00397232        0.03245296        0.00397232
      67         -0.517030        2.000000        0.00034740        0.00250650        0.00055697        0.00250650        0.00049884        0.00270936        0.00206963        0.00270936        0.00598281
      68         -0.517030        2.000000        0.00034740        0.00154399        0.00248198        0.00154399        0.00268156        0.00161800        0.00496761        0.00161800        0.00308484
      69         -0.517030        2.000000        0.00034740        0.00151947        0.00253102        0.00151947        0.00273716        0.00159020        0.00504143        0.00159020        0.00301102
      70         -0.515288        2.000000        0.00074641        0.00800982        0.00423701        0.00800981        0.00292863        0.00146729        0.00937013        0.00146728        0.00475124
      71         -0.515288        2.000000        0.00074641        0.00549461        0.00926742        0.00549462        0.00098017        0.00244152        0.00475124        0.00244152        0.00937013
      72         -0.507271        2.000000        0.00210424        0.01834460        0.01623435        0.01555869        0.00339590        0.00289359        0.01175693        0.00496476        0.01283364
      73         -0.507271        2.000000        0.00210424        0.01342739        0.01845926        0.01825099        0.00505000        0.00489517        0.01426172        0.00130908        0.01032885
      74         -0.507271        2.000000        0.00210424        0.01836565        0.01544403        0.01632796        0.00280835        0.00346550        0.01086720        0.00498041        0.01372337
      75         -0.507036        2.000000        0.00484828        0.01168303        0.01168303        0.01168303        0.00935730        0.00935730        0.00587229        0.00935730        0.00587229
      76         -0.502288        2.000000        0.00219089        0.03508337        0.02711858        0.03508561        0.00843785        0.00316660        0.01509059        0.00316809        0.00607287
      77         -0.502288        2.000000        0.00219089        0.02977501        0.03773979        0.02977276        0.00141051        0.00668176        0.00607287        0.00668028        0.01509059
      78         -0.501957        2.000000        0.00129569        0.03107249        0.02719690        0.03107261        0.00603212        0.00755844        0.01214284        0.00755840        0.01207125
      79         -0.501957        2.000000        0.00129569        0.02757471        0.03063120        0.03113608        0.00738461        0.00758344        0.01209526        0.00618091        0.01211883
      80         -0.501957        2.000000        0.00129569        0.03069480        0.03151390        0.02713331        0.00773223        0.00600707        0.01208303        0.00740965        0.01213106
      81         -0.494592        2.000000        0.00040895        0.01480829        0.01633460        0.01480829        0.00167273        0.00084059        0.00633436        0.00084059        0.00280715
      82         -0.494592        2.000000        0.00040895        0.01529921        0.01530479        0.01534718        0.00111128        0.00113439        0.00454949        0.00110824        0.00459202
      83         -0.494592        2.000000        0.00040895        0.01584368        0.01431179        0.01579571        0.00056990        0.00137893        0.00282842        0.00140508        0.00631309
      84         -0.493490        2.000000        0.00005441        0.00528691        0.00427541        0.00415298        0.00149572        0.00162048        0.00273143        0.00046491        0.00264791
      85         -0.493490        2.000000        0.00005441        0.00342063        0.00524302        0.00505166        0.00050964        0.00070466        0.00259508        0.00236681        0.00278426
      86         -0.493490        2.000000        0.00005441        0.00500777        0.00419687        0.00451067        0.00157575        0.00125597        0.00274249        0.00074939        0.00263684
      87         -0.491905        2.000000        0.00005116        0.03893138        0.02981394        0.02838649        0.00123304        0.00110589        0.00936278        0.00204519        0.01051581
      88         -0.491905        2.000000        0.00005116        0.03347635        0.02997648        0.03367898        0.00124752        0.00157733        0.00939934        0.00155928        0.01047925
      89         -0.491905        2.000000        0.00005116        0.02472408        0.03734139        0.03506634        0.00190356        0.00170091        0.01105577        0.00077966        0.00882283
      90         -0.491487        2.000000        0.00154252        0.02020731        0.02003504        0.02527961        0.00200361        0.00354356        0.00483013        0.00205419        0.00658982
      91         -0.491487        2.000000        0.00154252        0.02161849        0.02228499        0.02161849        0.00266425        0.00246855        0.00592649        0.00246855        0.00549346
      92         -0.491487        2.000000        0.00154252        0.02369616        0.02320193        0.01862387        0.00293349        0.00158924        0.00637331        0.00307861        0.00504665
      93         -0.490033        2.000000        0.00136892        0.00575770        0.02637589        0.01434179        0.00133297        0.00613478        0.01106805        0.00955998        0.00666775
      94         -0.490033        2.000000        0.00136892        0.02522589        0.00460770        0.01664180        0.01001886        0.00521704        0.00666775        0.00179184        0.01106805
      95         -0.488916        2.000000        0.02106919        0.01558476        0.01558476        0.01558476        0.01053247        0.01053247        0.01121545        0.01053247        0.01121545
      96         -0.485843        2.000000        0.00454091        0.02729883        0.01326745        0.02719717        0.00691415        0.00996661        0.00064265        0.00998889        0.00432108
      97         -0.485843        2.000000        0.00454091        0.02157895        0.02720217        0.01898233        0.00996770        0.00816647        0.00339243        0.00873547        0.00157130
      98         -0.485843        2.000000        0.00454091        0.01888566        0.02729383        0.02158395        0.00998779        0.00873657        0.00341052        0.00814528        0.00155321
      99         -0.475339        2.000000        0.01131384        0.01353172        0.02950387        0.02806750        0.02065545        0.02065527        0.01055442        0.02065350        0.00688499
     100         -0.475339        2.000000        0.01131384        0.04416281        0.01124179        0.01569850        0.02065322        0.02065377        0.00478039        0.02065723        0.01265901
     101         -0.475339        2.000000        0.01131384        0.01340856        0.03035743        0.02733710        0.02065555        0.02065518        0.01082429        0.02065349        0.00661511
     102         -0.465303        2.000000        0.00318717        0.14960378        0.12329530        0.14925399        0.01047150        0.00600393        0.03113248        0.00594373        0.00617996
     103         -0.465303        2.000000        0.00318717        0.13792161        0.14630984        0.13792161        0.00651062        0.00795426        0.01465165        0.00795426        0.02266079
     104         -0.465303        2.000000        0.00318717        0.13462767        0.15254793        0.13497747        0.00543703        0.00846096        0.01018453        0.00852116        0.02712791
     105         -0.464123        2.000000        0.00002567        0.07417535        0.12553974        0.11150956        0.00426845        0.00486913        0.00650102        0.00646755        0.00990141
     106         -0.464123        2.000000        0.00002567        0.12853125        0.07484057        0.10785284        0.00643907        0.00502569        0.01045541        0.00414037        0.00594702
     107         -0.464123        2.000000        0.00002567        0.10851805        0.11084435        0.09186225        0.00489761        0.00571030        0.00764722        0.00499721        0.00875522
     108         -0.463405        2.000000        0.00952025        0.08579093        0.08579093        0.08579093        0.00944083        0.00944083        0.00714195        0.00944083        0.00714195
     109         -0.455776        2.000000        0.00016142        0.10095155        0.04164892        0.10095165        0.00057939        0.00298802        0.03787315        0.00298802        0.01509247
     110         -0.455776        2.000000        0.00016142        0.04204454        0.15946315        0.04204444        0.00536453        0.00059545        0.00393006        0.00059545        0.04903557
     111         -0.455776        2.000000        0.00016142        0.10055604        0.04244005        0.10055604        0.00061152        0.00297196        0.03764522        0.00297196        0.01532040
     112         -0.455674        2.000000        0.00000569        0.14410171        0.11685072        0.14410148        0.00823897        0.00281109        0.03548687        0.00281104        0.00014257
     113         -0.455674        2.000000        0.00000569        0.12593423        0.15318522        0.12593446        0.00100176        0.00642964        0.00014257        0.00642969        0.03548687
     114         -0.452428        2.000000        0.00081993        0.13434366        0.11923796        0.13434367        0.03326661        0.01680835        0.01110396        0.01680837        0.01080915
     115         -0.452428        2.000000        0.00081993        0.12678101        0.13436328        0.12678100        0.01678699        0.02504818        0.01088257        0.02504816        0.01103055
     116         -0.452428        2.000000        0.00081993        0.12680062        0.13432405        0.12680062        0.01682973        0.02502680        0.01088314        0.02502680        0.01102997
     117         -0.448691        2.000000        0.00140566        0.01012748        0.01331917        0.01012748        0.01383961        0.00362784        0.02062446        0.00362784        0.00358946
     118         -0.448691        2.000000        0.00140566        0.01225527        0.00906358        0.01225527        0.00022392        0.01043568        0.00358946        0.01043568        0.02062446
     119         -0.448377        2.000000        0.00000000        0.10820715        0.10820715        0.10820715        0.00180648        0.00180648        0.02152472        0.00180648        0.02152472
     120         -0.445128        2.000000        0.00003805        0.13617146        0.14280773        0.12524726        0.00777426        0.00219938        0.02223824        0.00566746        0.00813708
     121         -0.445128        2.000000        0.00003805        0.13912937        0.12278954        0.14230753        0.00141913        0.00761546        0.00473920        0.00660650        0.02563612
     122         -0.445128        2.000000        0.00003805        0.12892561        0.13862918        0.13667165        0.00644770        0.00582625        0.01858554        0.00336714        0.01178979
     123         -0.442448        2.000000        0.00021367        0.06238716        0.04150798        0.06238716        0.00309520        0.00601759        0.00511382        0.00601759        0.01414361
     124         -0.442448        2.000000        0.00021367        0.04216701        0.08194829        0.04216701        0.00875549        0.00318744        0.01823098        0.00318744        0.00102645
     125         -0.442448        2.000000        0.00021367        0.06172813        0.04282603        0.06172813        0.00327969        0.00592535        0.00554134        0.00592535        0.01371609
     126         -0.440103        2.000000        0.00039469        0.06246521        0.24019203        0.06246522        0.04432996        0.01399271        0.01563843        0.01399271        0.00155752
     127         -0.440103        2.000000        0.00039469        0.18094976        0.00322294        0.18094975        0.00388029        0.03421754        0.00155752        0.03421754        0.01563843
     128         -0.439870        2.000000        0.00006142        0.12190065        0.12857916        0.05540162        0.01073513        0.00519617        0.02124971        0.01022962        0.01392446
     129         -0.439870        2.000000        0.00006142        0.13448587        0.03797806        0.13341750        0.00387734        0.01110135        0.00878336        0.01118222        0.02639081
     130         -0.439870        2.000000        0.00006142        0.04949491        0.13932421        0.11706231        0.01154844        0.00986339        0.02272818        0.00474908        0.01244599
     131         -0.437188        2.000000        0.00087116        0.10203830        0.13679481        0.10203830        0.01562274        0.00902547        0.03652526        0.00902547        0.00971348
     132         -0.437188        2.000000        0.00087116        0.12281276        0.09524596        0.12281267        0.00773619        0.01296874        0.01248663        0.01296875        0.03375211
     133         -0.437188        2.000000        0.00087116        0.11602034        0.10883063        0.11602043        0.01031475        0.01167947        0.02034622        0.01167946        0.02589252
     134         -0.431155        2.000000        0.00000080        0.07406305        0.04674319        0.05000310        0.00479684        0.00496711        0.00815277        0.00622383        0.00601625
     135         -0.431155        2.000000        0.00000080        0.02486719        0.07633206        0.06961008        0.00634235        0.00599124        0.00505183        0.00365420        0.00911719
     136         -0.431155        2.000000        0.00000080        0.07187909        0.04773408        0.05119616        0.00484860        0.00502943        0.00804893        0.00610976        0.00612010
     137         -0.429622        2.000000        0.00026966        0.14583795        0.00703387        0.14583931        0.00464256        0.01428018        0.00186940        0.01428008        0.02998920
     138         -0.429622        2.000000        0.00026966        0.05330280        0.19210688        0.05330145        0.01749265        0.00785504        0.02998920        0.00785513        0.00186940
     139         -0.427871        2.000000        0.00047189        0.05696008        0.05426101        0.02421711        0.01247638        0.01105761        0.00836114        0.01260384        0.00627312
     140         -0.427871        2.000000        0.00047189        0.01310989        0.06110837        0.06121994        0.01279973        0.01280500        0.00914543        0.01053309        0.00548883
     141         -0.427871        2.000000        0.00047189        0.06536824        0.02006882        0.05000115        0.01086172        0.01227521        0.00444482        0.01300089        0.01018944
     142         -0.424631        2.000000        0.00175721        0.18513535        0.01016839        0.18513535        0.00965313        0.06506356        0.00074323        0.06506356        0.00215666
     143         -0.424631        2.000000        0.00175721        0.01161337        0.35900148        0.00982424        0.12012537        0.00954414        0.00285670        0.01011074        0.00004319
     144         -0.424631        2.000000        0.00175721        0.18369037        0.01126922        0.18547950        0.01000175        0.06517255        0.00074990        0.06460595        0.00214999