# Projected DOS for list 1 of 102 atoms, at iteration step i = 0, E(Fermi) =    -0.420418 a.u.
#     MO Eigenvalue [a.u.]      Occupation                 s                py                pz                px               d-2               d-1                d0               d+1               d+2
       1         -0.724906        2.000000        0.40362366        0.00665732        0.00665732        0.00665732        0.00290099        0.00290099        0.00048127        0.00290099        0.00048127
       2         -0.717483        2.000000        0.57788792        0.00845531        0.01146263        0.00845579        0.00735734        0.00833919        0.00231836        0.00833935        0.00117456
       3         -0.717483        2.000000        0.57788792        0.00915886        0.01005601        0.00915886        0.00781666        0.00810961        0.00191709        0.00810961        0.00157584
       4         -0.717483        2.000000        0.57788792        0.01075956        0.00685509        0.01075908        0.00886188        0.00758708        0.00100394        0.00758692        0.00248899
       5         -0.708424        2.000000        0.65506600        0.01497043        0.01092357        0.01379731        0.01813547        0.01784061        0.00198528        0.01772024        0.00158405
       6         -0.708424        2.000000        0.65506600        0.01147285        0.01674561        0.01147285        0.01753810        0.01807911        0.00147897        0.01807911        0.00209035
       7         -0.708424        2.000000        0.65506600        0.01324803        0.01202213        0.01442115        0.01802275        0.01777660        0.00188974        0.01789697        0.00167958
       8         -0.705880        2.000000        0.72056854        0.00915845        0.00915845        0.00915845        0.01227520        0.01227520        0.00590477        0.01227520        0.00590477
       9         -0.704611        2.000000        0.71250053        0.00830311        0.02158613        0.00826361        0.01882142        0.00983278        0.00771430        0.00985943        0.00378604
      10         -0.704611        2.000000        0.71250053        0.01713212        0.00384910        0.01717163        0.00685433        0.01584297        0.00378604        0.01581632        0.00771430
      11         -0.698800        2.000000        0.45533390        0.00546592        0.00546592        0.00546592        0.01614729        0.01614729        0.00119006        0.01614729        0.00119006
      12         -0.697959        2.000000        0.56097191        0.01533465        0.02112120        0.01533465        0.03400445        0.02468013        0.00135256        0.02468013        0.00180236
      13         -0.697959        2.000000        0.56097191        0.01736312        0.01706560        0.01736179        0.02746934        0.02794661        0.00158900        0.02794876        0.00156592
      14         -0.697959        2.000000        0.56097191        0.01909273        0.01360371        0.01909407        0.02189092        0.03073797        0.00179082        0.03073582        0.00136410
      15         -0.695046        2.000000        0.55683678        0.02437522        0.02349796        0.02293488        0.03256908        0.03214200        0.00284051        0.03323444        0.00297222
      16         -0.695046        2.000000        0.55683678        0.02125508        0.02546835        0.02408463        0.03406354        0.03301404        0.00407959        0.03086795        0.00173313
      17         -0.695046        2.000000        0.55683678        0.02517776        0.02184175        0.02378855        0.03131291        0.03278948        0.00179899        0.03384314        0.00401374
      18         -0.687045        2.000000        0.71882741        0.01732343        0.03058499        0.01732343        0.04727008        0.03186661        0.00193099        0.03186661        0.00106968
      19         -0.687045        2.000000        0.71882741        0.02616447        0.01290291        0.02616447        0.02673213        0.04213559        0.00106968        0.04213559        0.00193099
      20         -0.684589        2.000000        0.43725235        0.01840486        0.02485513        0.01840486        0.03085756        0.02813786        0.00480808        0.02813786        0.00325529
      21         -0.684589        2.000000        0.43725235        0.02943463        0.02036775        0.01186248        0.02896549        0.02537933        0.00399788        0.03278846        0.00406548
      22         -0.684589        2.000000        0.43725235        0.01382536        0.01644198        0.03139751        0.02731023        0.03361609        0.00328909        0.02620696        0.00477428
      23         -0.679988        2.000000        0.72987917        0.03075127        0.01639947        0.03075127        0.01870282        0.03322449        0.00446947        0.03322449        0.00537917
      24         -0.679988        2.000000        0.72987917        0.01643591        0.04503019        0.01643591        0.04767241        0.01873969        0.00583055        0.01873969        0.00401808
      25         -0.679988        2.000000        0.72987917        0.03071483        0.01647235        0.03071483        0.01877656        0.03318762        0.00447293        0.03318762        0.00537570
      26         -0.672935        2.000000        0.61821808        0.03026603        0.02520617        0.02856547        0.02818556        0.03072625        0.00466700        0.03201241        0.00558793
      27         -0.672935        2.000000        0.61821808        0.03419655        0.02547408        0.02436703        0.02838819        0.02755091        0.00471096        0.03498511        0.00554397
      28         -0.672935        2.000000        0.61821808        0.01957509        0.03335742        0.03110517        0.03435046        0.03264705        0.00600444        0.02392670        0.00425050
      29         -0.659838        2.000000        0.45242163        0.03693424        0.03693424        0.03693424        0.02940485        0.02940485        0.00270340        0.02940485        0.00270340
      30         -0.659265        2.000000        0.48696651        0.03300424        0.06646626        0.03300421        0.05367637        0.03357647        0.01300046        0.03357648        0.00447559
      31         -0.659265        2.000000        0.48696651        0.05531224        0.02185021        0.05531226        0.02687651        0.04697641        0.00447559        0.04697640        0.01300046
      32         -0.638123        2.000000        0.60819330        0.04595321        0.03334800        0.04819295        0.02373197        0.03350217        0.00553604        0.03202808        0.01107231
      33         -0.638123        2.000000        0.60819330        0.05323018        0.04840809        0.02585589        0.03364376        0.01880104        0.01009212        0.03681742        0.00651623
      34         -0.638123        2.000000        0.60819330        0.02831077        0.04573807        0.05344532        0.03188649        0.03695902        0.00928437        0.02041672        0.00732399
      35         -0.635324        2.000000        0.61094587        0.04219005        0.02683422        0.04219005        0.02486267        0.03895133        0.00603526        0.03895133        0.01418722
      36         -0.635324        2.000000        0.61094587        0.03829547        0.03462337        0.03829547        0.03200907        0.03537814        0.00913654        0.03537814        0.01108594
      37         -0.635324        2.000000        0.61094587        0.03072879        0.04975672        0.03072879        0.04589360        0.02843587        0.01516192        0.02843587        0.00506056
      38         -0.625155        2.000000        0.54244381        0.03442197        0.05016788        0.03442197        0.02474324        0.02280844        0.01096512        0.02280844        0.01062700
      39         -0.625155        2.000000        0.54244381        0.04009177        0.03882829        0.04009177        0.02334987        0.02350513        0.01078249        0.02350513        0.01080962
      40         -0.625155        2.000000        0.54244381        0.04449809        0.03001566        0.04449809        0.02226701        0.02404656        0.01064056        0.02404656        0.01095155
      41         -0.620705        2.000000        0.65166919        0.03919949        0.06419391        0.03919949        0.02609262        0.03468779        0.00785152        0.03468779        0.00231692
      42         -0.620705        2.000000        0.65166919        0.05586244        0.03086801        0.05586244        0.03755285        0.02895767        0.00231692        0.02895767        0.00785152
      43         -0.607191        2.000000        0.57982631        0.04907528        0.04853539        0.04907528        0.03857258        0.03947831        0.00202202        0.03947831        0.00223744
      44         -0.607191        2.000000        0.57982631        0.04804225        0.05060146        0.04804225        0.04203864        0.03774529        0.00264031        0.03774529        0.00161916
      45         -0.607191        2.000000        0.57982631        0.04956843        0.04754910        0.04956843        0.03691799        0.04030561        0.00172687        0.04030561        0.00253260
      46         -0.605292        2.000000        0.57880945        0.04577233        0.04577233        0.04577233        0.03538997        0.03538997        0.00456581        0.03538997        0.00456581
      47         -0.597891        2.000000        0.35277465        0.07560372        0.07308024        0.07698911        0.03613460        0.03754723        0.00310316        0.03704656        0.00324453
      48         -0.597891        2.000000        0.35277465        0.08451990        0.07642049        0.06473268        0.03734174        0.03311786        0.00321328        0.04026880        0.00313441
      49         -0.597891        2.000000        0.35277465        0.06554945        0.07617234        0.08395128        0.03725206        0.04006330        0.00320510        0.03341304        0.00314260
      50         -0.592747        2.000000        0.38288695        0.04900031        0.09028970        0.04900031        0.06948530        0.03177190        0.00972141        0.03177190        0.00255632
      51         -0.592747        2.000000        0.38288695        0.07652657        0.03523718        0.07652657        0.01920077        0.05691417        0.00255632        0.05691417        0.00972141
      52         -0.592147        2.000000        0.36060216        0.03311370        0.03311370        0.03311370        0.02725184        0.02725184        0.00896449        0.02725184        0.00896449
      53         -0.578897        2.000000        0.34882214        0.07857652        0.08007190        0.08059762        0.03023720        0.02808255        0.00261045        0.03636591        0.00258710
      54         -0.578897        2.000000        0.34882214        0.08090414        0.07878022        0.07956169        0.03553107        0.03232827        0.00256378        0.02682631        0.00263377
      55         -0.578897        2.000000        0.34882214        0.07976539        0.08039393        0.07908674        0.02891739        0.03427483        0.00262209        0.03149343        0.00257546
      56         -0.552733        2.000000        0.25600561        0.07834500        0.08925308        0.07834500        0.05063955        0.04225643        0.00494431        0.04225643        0.00347936
      57         -0.552733        2.000000        0.25600561        0.07810488        0.08973331        0.07810488        0.05100862        0.04207189        0.00499268        0.04207189        0.00343099
      58         -0.552733        2.000000        0.25600561        0.08949320        0.06695668        0.08949320        0.03350423        0.05082409        0.00269851        0.05082409        0.00572516
      59         -0.535780        2.000000        0.51100681        0.08403176        0.10755631        0.12393586        0.04085897        0.04782908        0.01742089        0.03084839        0.01652977
      60         -0.535780        2.000000        0.51100681        0.14564453        0.08692690        0.08295251        0.03208038        0.03038913        0.01356154        0.05706693        0.02038912
      61         -0.535780        2.000000        0.51100681        0.08584765        0.12104072        0.10863557        0.04659709        0.04131823        0.01994356        0.03162112        0.01400710
      62         -0.533425        2.000000        0.52681271        0.08379298        0.10373982        0.12443632        0.04475341        0.05441820        0.01056316        0.03543868        0.01058935
      63         -0.533425        2.000000        0.52681271        0.14742523        0.08406399        0.08047990        0.03556524        0.03389155        0.00953230        0.06515350        0.01162021
      64         -0.533425        2.000000        0.52681271        0.08075091        0.12416531        0.10705290        0.05429164        0.04630054        0.01163330        0.03401811        0.00951921
      65         -0.523611        2.000000        0.40410063        0.12405828        0.12405828        0.12405828        0.02910453        0.02910453        0.01581185        0.02910453        0.01581185
      66         -0.518084        2.000000        0.32062730        0.08126539        0.08126539        0.08126539        0.03578636        0.03578636        0.01155675        0.03578636        0.01155675
      67         -0.517030        2.000000        0.48162733        0.15044437        0.06767518        0.15044437        0.01321511        0.04421718        0.01871050        0.04421718        0.00956139
      68         -0.517030        2.000000        0.48162733        0.10958025        0.14940342        0.10958025        0.04382728        0.02891109        0.01193497        0.02891109        0.01633692
      69         -0.517030        2.000000        0.48162733        0.10853930        0.15148532        0.10853930        0.04460708        0.02852120        0.01176237        0.02852120        0.01650952
      70         -0.515288        2.000000        0.46133593        0.14601809        0.08655959        0.14601795        0.01463743        0.04067120        0.01478072        0.04067126        0.00832020
      71         -0.515288        2.000000        0.46133593        0.10637900        0.16583750        0.10637914        0.04934916        0.02331539        0.00832020        0.02331533        0.01478072
      72         -0.507271        2.000000        0.35688624        0.14531515        0.16386711        0.16980707        0.00829692        0.00843152        0.02544760        0.00787656        0.02598511
      73         -0.507271        2.000000        0.35688624        0.18854408        0.14430718        0.14613808        0.00785372        0.00789520        0.02669804        0.00885608        0.02473468
      74         -0.507271        2.000000        0.35688624        0.14513011        0.17081504        0.16304418        0.00845436        0.00827828        0.02500343        0.00787236        0.02642928
      75         -0.507036        2.000000        0.36783513        0.16276500        0.16276500        0.16276500        0.00505825        0.00505825        0.02449064        0.00505825        0.02449064
      76         -0.502288        2.000000        0.36662701        0.14882793        0.11851582        0.14883647        0.00980313        0.02040858        0.01912002        0.02040559        0.01204101
      77         -0.502288        2.000000        0.36662701        0.12862555        0.15893766        0.12861701        0.02394174        0.01333629        0.01204101        0.01333927        0.01912002
      78         -0.501957        2.000000        0.35815914        0.13787080        0.14754139        0.13787051        0.01600430        0.01657084        0.01717930        0.01657083        0.01623215
      79         -0.501957        2.000000        0.35815914        0.14659866        0.13897193        0.13771211        0.01650632        0.01658012        0.01654983        0.01605953        0.01686162
      80         -0.501957        2.000000        0.35815914        0.13881325        0.13676938        0.14770008        0.01663535        0.01599501        0.01638804        0.01651562        0.01702340
      81         -0.494592        2.000000        0.42939957        0.12684492        0.14126814        0.12684492        0.03146611        0.02585740        0.01768641        0.02585740        0.01591958
      82         -0.494592        2.000000        0.42939957        0.13148401        0.13153671        0.13193725        0.02768188        0.02783764        0.01679234        0.02766139        0.01681365
      83         -0.494592        2.000000        0.42939957        0.13662904        0.12215313        0.13617580        0.02403293        0.02948587        0.01593024        0.02966212        0.01767576
      84         -0.493490        2.000000        0.46946119        0.10149762        0.14110563        0.14589951        0.03076459        0.03084849        0.01337381        0.03007138        0.01424762
      85         -0.493490        2.000000        0.46946119        0.17457686        0.10321625        0.11070965        0.03010146        0.03023260        0.01480030        0.03135039        0.01282113
      86         -0.493490        2.000000        0.46946119        0.11242829        0.14418088        0.13189360        0.03081841        0.03060336        0.01325803        0.03026268        0.01436339
      87         -0.491905        2.000000        0.37574094        0.11860539        0.12935118        0.13103356        0.03612737        0.03603667        0.00686649        0.03670670        0.00808601
      88         -0.491905        2.000000        0.37574094        0.12503467        0.12915960        0.12479586        0.03613769        0.03637295        0.00690516        0.03636008        0.00804735
      89         -0.491905        2.000000        0.37574094        0.13535007        0.12047935        0.12316072        0.03660567        0.03646111        0.00865711        0.03580395        0.00629540
      90         -0.491487        2.000000        0.39264410        0.13646306        0.13662924        0.13156999        0.03433979        0.02998599        0.00747502        0.03419678        0.01061025
      91         -0.491487        2.000000        0.39264410        0.13510174        0.13445879        0.13510174        0.03247199        0.03302529        0.00942840        0.03302529        0.00865687
      92         -0.491487        2.000000        0.39264410        0.13309748        0.13357425        0.13799055        0.03171078        0.03551128        0.01022448        0.03130050        0.00786078
      93         -0.490033        2.000000        0.35596011        0.11938514        0.18534167        0.14684519        0.03212861        0.02816805        0.01670990        0.02534293        0.00751057
      94         -0.490033        2.000000        0.35596011        0.18166286        0.11570633        0.15420281        0.02496445        0.02892501        0.00751057        0.03175013        0.01670990
      95         -0.488916        2.000000        0.27179252        0.16770557        0.16770557        0.16770557        0.02831667        0.02831667        0.00914451        0.02831667        0.00914451
      96         -0.485843        2.000000        0.32896209        0.14473810        0.15816103        0.14483536        0.04849791        0.02646620        0.00960814        0.02630539        0.00828805
      97         -0.485843        2.000000        0.32896209        0.15020995        0.14483057        0.15269397        0.02645829        0.03945906        0.00862132        0.03535216        0.00927487
      98         -0.485843        2.000000        0.32896209        0.15278645        0.14474288        0.15020516        0.02631330        0.03534425        0.00861483        0.03961195        0.00928136
      99         -0.475339        2.000000        0.26659437        0.12325170        0.16881723        0.16471954        0.03821473        0.03733359        0.00527346        0.02841658        0.00555825
     100         -0.475339        2.000000        0.26659437        0.21063642        0.11671895        0.12943310        0.02701181        0.02974579        0.00572160        0.04720730        0.00511012
     101         -0.475339        2.000000        0.26659437        0.12290035        0.17125228        0.16263583        0.03873835        0.03688552        0.00525251        0.02834102        0.00557920
     102         -0.465303        2.000000        0.08062094        0.07219378        0.18120594        0.07364321        0.01559696        0.01638056        0.03392305        0.01639112        0.02497263
     103         -0.465303        2.000000        0.08062094        0.12060017        0.08584259        0.12060017        0.01629168        0.01603847        0.02801141        0.01603847        0.03088427
     104         -0.465303        2.000000        0.08062094        0.13424898        0.05999439        0.13279956        0.01647999        0.01594960        0.02640906        0.01593904        0.03248662
     105         -0.464123        2.000000        0.09653363        0.16971306        0.11217422        0.12789095        0.03071084        0.02974970        0.03121949        0.02719211        0.03155812
     106         -0.464123        2.000000        0.09653363        0.10882310        0.16896788        0.13198724        0.02723768        0.02949920        0.03161329        0.03091578        0.03116432
     107         -0.464123        2.000000        0.09653363        0.13124206        0.12863612        0.14990004        0.02970413        0.02840375        0.03133364        0.02954477        0.03144398
     108         -0.463405        2.000000        0.09938650        0.14314098        0.14314098        0.14314098        0.03252078        0.03252078        0.03206441        0.03252078        0.03206441
     109         -0.455776        2.000000        0.10433689        0.17522588        0.14640782        0.17522592        0.01704749        0.02195323        0.01472681        0.02195322        0.01988813
     110         -0.455776        2.000000        0.10433689        0.14660007        0.20365953        0.14660002        0.02679352        0.01708021        0.02241715        0.01708021        0.01219779
     111         -0.455776        2.000000        0.10433689        0.17503367        0.14679227        0.17503367        0.01711293        0.02192050        0.01477845        0.02192050        0.01983649
     112         -0.455674        2.000000        0.10398194        0.05738158        0.21472484        0.05738292        0.01536465        0.02344992        0.02587893        0.02344999        0.02383508
     113         -0.455674        2.000000        0.10398194        0.16227798        0.00493472        0.16227665        0.02614506        0.01805979        0.02383508        0.01805972        0.02587893
     114         -0.452428        2.000000        0.09144902        0.10896205        0.09243732        0.10896206        0.00755915        0.04462805        0.00687425        0.04462802        0.01695841
     115         -0.452428        2.000000        0.09144902        0.10068897        0.10898351        0.10068896        0.04467616        0.02606951        0.01444719        0.02606954        0.00938547
     116         -0.452428        2.000000        0.09144902        0.10071042        0.10894060        0.10071042        0.04457991        0.02611765        0.01442755        0.02611765        0.00940511
     117         -0.448691        2.000000        0.14972550        0.15617735        0.31907107        0.15617737        0.06658732        0.02174429        0.02044545        0.02174429        0.00803837
     118         -0.448691        2.000000        0.14972550        0.26477317        0.10187946        0.26477316        0.00679661        0.05163964        0.00803837        0.05163964        0.02044545
     119         -0.448377        2.000000        0.00000000        0.17899308        0.17899308        0.17899308        0.00497251        0.00497251        0.03750645        0.00497251        0.03750645
     120         -0.445128        2.000000        0.06669953        0.13363971        0.16465058        0.08259163        0.01666014        0.01246204        0.03160523        0.01507364        0.02633660
     121         -0.445128        2.000000        0.06669953        0.14746186        0.07110685        0.16231320        0.01187448        0.01654056        0.02506705        0.01578077        0.03287478
     122         -0.445128        2.000000        0.06669953        0.09978034        0.14512448        0.13597709        0.01566120        0.01519322        0.03024047        0.01334140        0.02770136
     123         -0.442448        2.000000        0.06876580        0.23703153        0.13979347        0.23703154        0.01633028        0.04076576        0.00641526        0.04076576        0.01221682
     124         -0.442448        2.000000        0.06876580        0.14286267        0.32813119        0.14286267        0.06365869        0.01710156        0.01484292        0.01710156        0.00378915
     125         -0.442448        2.000000        0.06876580        0.23396233        0.14593188        0.23396233        0.01787284        0.03999449        0.00668993        0.03999449        0.01194214
     126         -0.440103        2.000000        0.10576502        0.06660626        0.18868878        0.06660626        0.04525233        0.01444891        0.03543372        0.01444890        0.00772134
     127         -0.440103        2.000000        0.10576502        0.14799461        0.02591209        0.14799461        0.00418110        0.03498452        0.00772134        0.03498452        0.03543372
     128         -0.439870        2.000000        0.03545465        0.18381100        0.18922752        0.12987777        0.02484757        0.01768392        0.01268485        0.02419378        0.01494101
     129         -0.439870        2.000000        0.03545465        0.19401808        0.11574661        0.19315160        0.01597825        0.02532121        0.01652445        0.02542580        0.01110141
     130         -0.439870        2.000000        0.03545465        0.12508721        0.19794216        0.17988692        0.02589945        0.02372014        0.01222949        0.01710568        0.01539638
     131         -0.437188        2.000000        0.04522253        0.11131923        0.21225038        0.11131923        0.02550179        0.01892385        0.01541229        0.01892385        0.01947186
     132         -0.437188        2.000000        0.04522253        0.17164723        0.09159464        0.17164697        0.01763835        0.02285557        0.01905197        0.02285558        0.01583217
     133         -0.437188        2.000000        0.04522253        0.15192238        0.13104382        0.15192264        0.02020936        0.02157008        0.01786196        0.02157006        0.01702219
     134         -0.431155        2.000000        0.01550543        0.21459273        0.24152481        0.23831117        0.01461022        0.01464026        0.02054974        0.01486194        0.02443675
     135         -0.431155        2.000000        0.01550543        0.26309030        0.21235592        0.21898250        0.01488285        0.01482091        0.02619133        0.01440866        0.01879516
     136         -0.431155        2.000000        0.01550543        0.21674568        0.24054798        0.23713504        0.01461935        0.01465125        0.02073867        0.01484182        0.02424782
     137         -0.429622        2.000000        0.05063475        0.19001604        0.06966969        0.19001721        0.00620088        0.05000629        0.00961812        0.05000586        0.01978895
     138         -0.429622        2.000000        0.05063475        0.10978593        0.23013227        0.10978475        0.06460780        0.02080240        0.01978895        0.02080282        0.00961812
     139         -0.427871        2.000000        0.03185886        0.22358017        0.22359772        0.22379308        0.02538362        0.01586800        0.02161467        0.02623848        0.02138323
     140         -0.427871        2.000000        0.03185886        0.22386531        0.22355320        0.22355247        0.02755234        0.02758768        0.02170160        0.01235007        0.02129630
     141         -0.427871        2.000000        0.03185886        0.22352550        0.22382006        0.22362542        0.01455413        0.02403442        0.02118058        0.02890154        0.02181732
     142         -0.424631        2.000000        0.06600677        0.10621385        0.06619367        0.10621385        0.01369941        0.05383655        0.00241146        0.05383655        0.00671147
     143         -0.424631        2.000000        0.06600677        0.06652417        0.14598224        0.06611495        0.09372115        0.01362047        0.00884118        0.01403089        0.00028174
     144         -0.424631        2.000000        0.06600677        0.10588334        0.06644546        0.10629256        0.01395194        0.05391549        0.00243175        0.05350507        0.00669117