# Projected DOS for list 1 of 164 atoms, at iteration step i = 0, E(Fermi) =    -0.426861 a.u.
#     MO Eigenvalue [a.u.]      Occupation                 s                py                pz                px               d-2               d-1                d0               d+1               d+2
       1         -0.736112        2.000000        0.20289844        0.00392586        0.00392586        0.00392586        0.00130132        0.00130132        0.00019234        0.00130132        0.00019234
       2         -0.731812        2.000000        0.31913113        0.00463356        0.00639898        0.00621293        0.00354582        0.00362383        0.00098735        0.00428610        0.00067750
       3         -0.731812        2.000000        0.31913113        0.00773808        0.00480495        0.00470244        0.00421423        0.00425722        0.00060771        0.00298430        0.00105714
       4         -0.731812        2.000000        0.31913113        0.00487383        0.00604154        0.00633010        0.00369570        0.00357470        0.00090222        0.00418535        0.00076263
       5         -0.726226        2.000000        0.44109533        0.00914792        0.00752926        0.00741027        0.00952236        0.00963309        0.00108214        0.00801602        0.00101774
       6         -0.726226        2.000000        0.44109533        0.00573193        0.00924173        0.00911379        0.00792872        0.00804778        0.00097183        0.01119498        0.00112805
       7         -0.726226        2.000000        0.44109533        0.00920760        0.00731646        0.00756339        0.00972040        0.00949060        0.00109585        0.00796048        0.00100403
       8         -0.724535        2.000000        0.37891157        0.01117121        0.01102760        0.00421131        0.00903218        0.00529015        0.00349391        0.00911102        0.00238605
       9         -0.724535        2.000000        0.37891157        0.00643553        0.00657914        0.01339544        0.00659005        0.01033208        0.00238605        0.00651122        0.00349391
      10         -0.722714        2.000000        0.39037541        0.00377919        0.00377919        0.00377919        0.00681166        0.00681166        0.00227510        0.00681166        0.00227510
      11         -0.719486        2.000000        0.46806074        0.00705035        0.00705035        0.00705035        0.01492401        0.01492401        0.00064154        0.01492401        0.00064154
      12         -0.717995        2.000000        0.50674132        0.01459736        0.01190708        0.01183342        0.01129321        0.01119954        0.00142628        0.01471488        0.00173810
      13         -0.717995        2.000000        0.50674132        0.00888060        0.01456395        0.01489331        0.01467239        0.01509128        0.00190121        0.00744396        0.00126317
      14         -0.717995        2.000000        0.50674132        0.01485990        0.01186683        0.01161113        0.01124203        0.01091682        0.00141908        0.01504879        0.00174530
      15         -0.717705        2.000000        0.46458208        0.00849028        0.01036760        0.00975619        0.01845941        0.01607754        0.00168267        0.01114590        0.00238178
      16         -0.717705        2.000000        0.46458208        0.01142879        0.00889382        0.00829146        0.01271797        0.01037135        0.00230367        0.02259352        0.00176077
      17         -0.717705        2.000000        0.46458208        0.00869500        0.00935265        0.01056642        0.01450547        0.01923395        0.00211033        0.01194343        0.00195411
      18         -0.711441        2.000000        0.39803824        0.01357546        0.01746256        0.01700552        0.02075447        0.02032773        0.00266093        0.01712504        0.00215466
      19         -0.711441        2.000000        0.39803824        0.02076213        0.01381851        0.01346289        0.01735198        0.01701993        0.00202391        0.02383532        0.00279168
      20         -0.711441        2.000000        0.39803824        0.01370594        0.01676246        0.01757513        0.02010078        0.02085958        0.00253854        0.01724687        0.00227705
      21         -0.710991        2.000000        0.29184322        0.01443279        0.01443279        0.01443279        0.02212629        0.02212629        0.00120138        0.02212629        0.00120138
      22         -0.710929        2.000000        0.63688699        0.01220697        0.01233579        0.01311668        0.01296128        0.02562060        0.00102321        0.01087291        0.00096959
      23         -0.710929        2.000000        0.63688699        0.01289932        0.01277050        0.01198961        0.02000858        0.00734926        0.00096959        0.02209695        0.00102321
      24         -0.709646        2.000000        0.37618999        0.00232600        0.00376940        0.00364882        0.00772605        0.00784053        0.00446135        0.00909652        0.00278595
      25         -0.709646        2.000000        0.37618999        0.00517048        0.00225831        0.00231544        0.00916079        0.00910655        0.00203323        0.00639577        0.00521406
      26         -0.709646        2.000000        0.37618999        0.00224775        0.00371651        0.00377996        0.00777627        0.00771602        0.00437637        0.00917082        0.00287093
      27         -0.705361        2.000000        0.52011399        0.02320508        0.01576907        0.01418819        0.01791134        0.01679921        0.00417010        0.02314247        0.00453805
      28         -0.705361        2.000000        0.52011399        0.00667881        0.02351320        0.02297033        0.02335923        0.02297732        0.00490009        0.01151647        0.00380806
      29         -0.705361        2.000000        0.52011399        0.02327845        0.01388006        0.01600382        0.01658245        0.01807648        0.00399203        0.02319409        0.00471612
      30         -0.704782        2.000000        0.38148958        0.00686480        0.00904160        0.00915148        0.01512861        0.01549646        0.00189633        0.00784097        0.00239374
      31         -0.704782        2.000000        0.38148958        0.01117134        0.00693833        0.00694821        0.00808712        0.00812021        0.00265557        0.02225870        0.00163450
      32         -0.704782        2.000000        0.38148958        0.00702174        0.00907795        0.00895819        0.01525031        0.01484937        0.00188321        0.00836637        0.00240687
      33         -0.703512        2.000000        0.37419568        0.02222295        0.02533556        0.01470202        0.04050753        0.01710997        0.00280922        0.03365867        0.00167750
      34         -0.703512        2.000000        0.37419568        0.01928407        0.01617146        0.02680500        0.02034325        0.04374081        0.00167750        0.02719211        0.00280922
      35         -0.702252        2.000000        0.41034433        0.01255885        0.01743336        0.01743485        0.02458286        0.02458510        0.00249678        0.01726794        0.00215513
      36         -0.702252        2.000000        0.41034433        0.02190410        0.01279839        0.01272456        0.01762741        0.01751661        0.00200934        0.03129188        0.00264258
      37         -0.702252        2.000000        0.41034433        0.01296410        0.01719531        0.01726765        0.02422563        0.02433419        0.00247175        0.01787608        0.00218016
      38         -0.697610        2.000000        0.53459896        0.01178301        0.01405763        0.01405629        0.01581570        0.01581960        0.00212468        0.02242215        0.00161269
      39         -0.697610        2.000000        0.53459896        0.01654735        0.01169497        0.01165460        0.02267785        0.02279509        0.00132745        0.00858450        0.00240993
      40         -0.697610        2.000000        0.53459896        0.01156657        0.01414433        0.01418603        0.01556389        0.01544276        0.00215393        0.02305079        0.00158344
      41         -0.692964        2.000000        0.56968596        0.01680494        0.01660985        0.01660784        0.02551136        0.02553357        0.00279708        0.02335545        0.00231258
      42         -0.692964        2.000000        0.56968596        0.01639369        0.01681509        0.01681385        0.02324335        0.02325699        0.00202458        0.02790003        0.00308507
      43         -0.692964        2.000000        0.56968596        0.01682400        0.01659769        0.01660094        0.02564566        0.02560982        0.00284282        0.02314489        0.00226683
      44         -0.691903        2.000000        0.28307230        0.01015512        0.01015512        0.01015512        0.01127632        0.01127632        0.00265567        0.01127632        0.00265567
      45         -0.691049        2.000000        0.30047147        0.01301701        0.01489657        0.00672442        0.01486918        0.01367780        0.00591295        0.01459517        0.00268466
      46         -0.691049        2.000000        0.30047147        0.01007499        0.00819543        0.01636759        0.01389225        0.01508364        0.00268466        0.01416626        0.00591295
      47         -0.689005        2.000000        0.39317720        0.01662240        0.01331812        0.01332080        0.01621055        0.01621230        0.00282749        0.01837272        0.00424977
      48         -0.689005        2.000000        0.39317720        0.01005680        0.01670909        0.01649543        0.01842945        0.01828964        0.00501511        0.01407649        0.00206215
      49         -0.689005        2.000000        0.39317720        0.01658211        0.01323411        0.01344509        0.01615558        0.01629364        0.00277329        0.01834636        0.00430397
      50         -0.687481        2.000000        0.56365316        0.01431262        0.01431262        0.01431262        0.01796804        0.01796804        0.00533105        0.01796804        0.00533105
      51         -0.685708        2.000000        0.57369048        0.02672810        0.01612059        0.01693224        0.01621905        0.01671799        0.00458063        0.02273973        0.00479572
      52         -0.685708        2.000000        0.57369048        0.00732700        0.02614617        0.02630776        0.02238200        0.02248133        0.00486390        0.01081344        0.00451246
      53         -0.685708        2.000000        0.57369048        0.02572583        0.01751417        0.01654093        0.01707572        0.01647744        0.00462001        0.02212361        0.00475635
      54         -0.683741        2.000000        0.52466424        0.02201415        0.02002739        0.02748817        0.02372938        0.02186299        0.00645560        0.02323237        0.00267751
      55         -0.683741        2.000000        0.52466424        0.02433899        0.02632575        0.01886497        0.02215378        0.02402017        0.00267751        0.02265079        0.00645560
      56         -0.670865        2.000000        0.49543815        0.02997591        0.02279218        0.02261915        0.02415265        0.02395851        0.00382128        0.03221265        0.00405144
      57         -0.670865        2.000000        0.49543815        0.01479503        0.03037446        0.03021776        0.03265981        0.03248400        0.00419466        0.01518000        0.00367806
      58         -0.670865        2.000000        0.49543815        0.03061630        0.02222061        0.02255034        0.02351135        0.02388130        0.00379313        0.03293116        0.00407958
      59         -0.670672        2.000000        0.67142142        0.02506866        0.01664620        0.01645428        0.02112324        0.02087876        0.00314310        0.03185217        0.00418224
      60         -0.670672        2.000000        0.67142142        0.00866201        0.02475510        0.02475202        0.03145275        0.03144883        0.00467877        0.01095259        0.00264657
      61         -0.670672        2.000000        0.67142142        0.02443847        0.01676783        0.01696284        0.02127818        0.02152658        0.00316613        0.03104941        0.00415920
      62         -0.670075        2.000000        0.74825522        0.02004257        0.02004257        0.02004257        0.02239067        0.02239067        0.00234884        0.02239067        0.00234884
      63         -0.666712        2.000000        0.52342165        0.01820586        0.02640030        0.02601492        0.02829986        0.02780114        0.00702475        0.01769531        0.00652332
      64         -0.666712        2.000000        0.52342165        0.03479095        0.01786934        0.01796080        0.01725982        0.01737817        0.00627689        0.03915832        0.00727119
      65         -0.666712        2.000000        0.52342165        0.01762428        0.02635144        0.02664537        0.02823662        0.02861700        0.00702047        0.01694268        0.00652761
      66         -0.665768        2.000000        0.35685589        0.00751293        0.02295371        0.02119676        0.01480274        0.01429301        0.00969755        0.01032298        0.00586091
      67         -0.665768        2.000000        0.35685589        0.03754131        0.00698543        0.00713667        0.01016994        0.01021382        0.00435401        0.01903497        0.01120445
      68         -0.665768        2.000000        0.35685589        0.00660917        0.02172426        0.02332997        0.01444605        0.01491190        0.00928613        0.01006078        0.00627233
      69         -0.645022        2.000000        0.50928584        0.03700091        0.03949900        0.03013385        0.02634117        0.03172046        0.00886218        0.02777606        0.00337444
      70         -0.645022        2.000000        0.50928584        0.03408826        0.03159018        0.04095532        0.03088396        0.02550467        0.00337444        0.02944907        0.00886218
      71         -0.641860        2.000000        0.53233289        0.04280574        0.02961720        0.02995143        0.01913873        0.01925860        0.00645096        0.02386884        0.00629321
      72         -0.641860        2.000000        0.53233289        0.01784100        0.04229367        0.04223969        0.02368518        0.02366582        0.00622914        0.01491516        0.00651503
      73         -0.641860        2.000000        0.53233289        0.04172763        0.03046349        0.03018325        0.01944225        0.01934174        0.00643615        0.02348217        0.00630801
      74         -0.639371        2.000000        0.51048913        0.03150027        0.02487804        0.02474590        0.02265356        0.02260059        0.00576147        0.02530854        0.00786092
      75         -0.639371        2.000000        0.51048913        0.01857913        0.03133620        0.03120889        0.02524276        0.02519172        0.00889514        0.02012821        0.00472725
      76         -0.639371        2.000000        0.51048913        0.03104482        0.02490998        0.02516942        0.02266637        0.02277038        0.00577697        0.02512594        0.00784542
      77         -0.638701        2.000000        0.52977316        0.03633561        0.03633561        0.03633561        0.02141282        0.02141282        0.00739108        0.02141282        0.00739108
      78         -0.634459        2.000000        0.34551676        0.01379553        0.03391490        0.02635836        0.01819166        0.01835934        0.00797176        0.01863811        0.00669998
      79         -0.634459        2.000000        0.34551676        0.03558366        0.01546429        0.02302084        0.01860108        0.01843340        0.00669998        0.01815463        0.00797176
      80         -0.633119        2.000000        0.58005458        0.03062934        0.04088643        0.04095829        0.02633649        0.02631238        0.00763530        0.02977779        0.00603344
      81         -0.633119        2.000000        0.58005458        0.05201011        0.03021072        0.03025323        0.02991824        0.02990397        0.00511680        0.02260446        0.00855195
      82         -0.633119        2.000000        0.58005458        0.02983461        0.04137692        0.04126254        0.02617193        0.02621031        0.00775101        0.03004442        0.00591773
      83         -0.629745        2.000000        0.29706553        0.02363551        0.02363551        0.02363551        0.01037586        0.01037586        0.00371340        0.01037586        0.00371340
      84         -0.626315        2.000000        0.43233480        0.03419907        0.02450504        0.02475629        0.02560992        0.02549813        0.00448545        0.02129683        0.00491345
      85         -0.626315        2.000000        0.43233480        0.01411148        0.03448399        0.03486492        0.02117006        0.02100058        0.00512963        0.03023424        0.00426928
      86         -0.626315        2.000000        0.43233480        0.03514984        0.02447137        0.02383919        0.02562490        0.02590617        0.00448328        0.02087381        0.00491563
      87         -0.612937        2.000000        0.38509618        0.02685968        0.04083005        0.04093257        0.02374490        0.02372729        0.00528474        0.02614428        0.00518867
      88         -0.612937        2.000000        0.38509618        0.05384920        0.02730572        0.02746737        0.02606767        0.02603991        0.00514420        0.02150889        0.00532921
      89         -0.612937        2.000000        0.38509618        0.02791342        0.04048653        0.04022235        0.02380390        0.02384927        0.00528117        0.02596330        0.00519224
      90         -0.610588        2.000000        0.30867386        0.03668658        0.06123894        0.06298837        0.02910244        0.02943156        0.00311989        0.02448341        0.00312651
      91         -0.610588        2.000000        0.30867386        0.08493471        0.03821347        0.03776571        0.02477067        0.02468643        0.00312992        0.03356032        0.00311649
      92         -0.610588        2.000000        0.30867386        0.03929260        0.06146148        0.06015981        0.02914431        0.02889943        0.00311980        0.02497368        0.00312661
      93         -0.608846        2.000000        0.38741216        0.02971773        0.04971221        0.10031153        0.02607951        0.04215530        0.00353135        0.01972711        0.00444256
      94         -0.608846        2.000000        0.38741216        0.09010991        0.07011543        0.01951611        0.03256177        0.01648598        0.00444256        0.03891417        0.00353135
      95         -0.604655        2.000000        0.22991158        0.08337420        0.06422031        0.06388462        0.03213703        0.03197566        0.00451470        0.04134435        0.00600197
      96         -0.604655        2.000000        0.22991158        0.04277534        0.08429934        0.08440445        0.04178907        0.04183959        0.00689507        0.02182839        0.00362160
      97         -0.604655        2.000000        0.22991158        0.08532959        0.06295947        0.06319007        0.03153094        0.03164179        0.00436523        0.04228431        0.00615144
      98         -0.602386        2.000000        0.26352063        0.02795758        0.04545161        0.04494842        0.02856006        0.02808938        0.00554314        0.01219615        0.00419356
      99         -0.602386        2.000000        0.26352063        0.06369473        0.02715447        0.02750840        0.01144493        0.01177600        0.00348503        0.04562467        0.00625167
     100         -0.602386        2.000000        0.26352063        0.02670530        0.04575152        0.04590078        0.02884061        0.02898022        0.00557688        0.01102477        0.00415982
     101         -0.599262        2.000000        0.24804084        0.05385234        0.07182468        0.08374212        0.03413632        0.02879042        0.00334726        0.04219831        0.00320556
     102         -0.599262        2.000000        0.24804084        0.08576042        0.06778808        0.05587064        0.03594705        0.04129295        0.00320556        0.02788506        0.00334726
     103         -0.598295        2.000000        0.26986957        0.05119352        0.05119352        0.05119352        0.01750814        0.01750814        0.00083585        0.01750814        0.00083585
     104         -0.594136        2.000000        0.25995753        0.05833328        0.06273110        0.06268888        0.02751899        0.02749318        0.00216141        0.02483006        0.00200021
     105         -0.594136        2.000000        0.25995753        0.06670238        0.05852947        0.05852140        0.02495002        0.02494509        0.00193260        0.02994712        0.00222902
     106         -0.594136        2.000000        0.25995753        0.05871760        0.06249268        0.06254298        0.02737322        0.02740397        0.00214842        0.02506505        0.00201320
     107         -0.585197        2.000000        0.24212967        0.06510320        0.07261030        0.07231771        0.02587398        0.02587645        0.00356208        0.02593718        0.00318692
     108         -0.585197        2.000000        0.24212967        0.08036075        0.06476558        0.06490489        0.02594002        0.02593885        0.00299610        0.02580874        0.00375290
     109         -0.585197        2.000000        0.24212967        0.06456726        0.07265534        0.07280862        0.02587360        0.02587231        0.00356532        0.02594169        0.00318367
     110         -0.582931        2.000000        0.33249513        0.07866744        0.07866744        0.07866744        0.02573827        0.02573827        0.00246897        0.02573827        0.00246897
     111         -0.579103        2.000000        0.19519818        0.07242156        0.05629233        0.05613766        0.03142152        0.03137685        0.00194826        0.03607909        0.00209589
     112         -0.579103        2.000000        0.19519818        0.03837050        0.07308393        0.07339712        0.03627036        0.03636079        0.00218103        0.02624630        0.00186312
     113         -0.579103        2.000000        0.19519818        0.07405949        0.05547528        0.05531677        0.03118558        0.03113981        0.00193694        0.03655207        0.00210722
     114         -0.570039        2.000000        0.21581038        0.03776900        0.03776900        0.03776900        0.03091216        0.03091216        0.00251680        0.03091216        0.00251680
     115         -0.560560        2.000000        0.16138636        0.04334767        0.05742802        0.08267849        0.02865551        0.04696563        0.00412376        0.01844529        0.00523100
     116         -0.560560        2.000000        0.16138636        0.07895511        0.06487477        0.03962429        0.03405544        0.01574533        0.00523100        0.04426566        0.00412376
     117         -0.559649        2.000000        0.23627396        0.05764923        0.06674144        0.06836516        0.02815733        0.02685118        0.00199170        0.03547125        0.00213987
     118         -0.559649        2.000000        0.23627396        0.07775798        0.05709507        0.05790278        0.03591702        0.03526729        0.00227877        0.01929544        0.00185280
     119         -0.559649        2.000000        0.23627396        0.05734862        0.06891932        0.06648789        0.02640540        0.02836128        0.00192689        0.03571307        0.00220468
     120         -0.545792        2.000000        0.46556123        0.08044511        0.10981816        0.11046299        0.03641992        0.03668428        0.00877783        0.02437796        0.00675033
     121         -0.545792        2.000000        0.46556123        0.13759877        0.08151873        0.08160877        0.02481811        0.02485502        0.00578197        0.04780902        0.00974619
     122         -0.545792        2.000000        0.46556123        0.08268239        0.10938938        0.10865450        0.03624413        0.03594286        0.00873243        0.02529517        0.00679572
     123         -0.544990        2.000000        0.50833522        0.11152782        0.10081584        0.10118452        0.03321680        0.03340464        0.00813664        0.03867441        0.00963349
     124         -0.544990        2.000000        0.50833522        0.08945543        0.11186351        0.11220923        0.03884544        0.03902158        0.01037523        0.02742883        0.00739490
     125         -0.544990        2.000000        0.50833522        0.11254492        0.10084882        0.10013443        0.03323361        0.03286963        0.00814333        0.03919262        0.00962681
     126         -0.544732        2.000000        0.51501770        0.14575702        0.06944777        0.10029929        0.02026018        0.03353932        0.00463666        0.05310528        0.01231633
     127         -0.544732        2.000000        0.51501770        0.06457903        0.14088828        0.11003676        0.05100968        0.03773054        0.01231633        0.01816458        0.00463666
     128         -0.543292        2.000000        0.51406299        0.11325160        0.09777273        0.09814846        0.03666908        0.03680678        0.00633145        0.04234202        0.00707670
     129         -0.543292        2.000000        0.51406299        0.08145175        0.11401625        0.11370478        0.04262227        0.04250811        0.00747675        0.03068751        0.00593140
     130         -0.543292        2.000000        0.51406299        0.11446943        0.09738380        0.09731954        0.03652654        0.03650299        0.00630403        0.04278836        0.00710412
     131         -0.542483        2.000000        0.52605251        0.10312410        0.10312410        0.10312410        0.04045277        0.04045277        0.00515130        0.04045277        0.00515130
     132         -0.532633        2.000000        0.33400037        0.09305510        0.08877497        0.08918724        0.03186365        0.03163478        0.00814893        0.02948760        0.00771459
     133         -0.532633        2.000000        0.33400037        0.08203889        0.09289207        0.09608635        0.02957810        0.02780484        0.00757730        0.03560308        0.00828623
     134         -0.532633        2.000000        0.33400037        0.09592332        0.08935027        0.08574372        0.03154427        0.03354640        0.00806906        0.02789535        0.00779447
     135         -0.529125        2.000000        0.46811451        0.11852219        0.11852219        0.11852219        0.02527068        0.02527068        0.01185923        0.02527068        0.01185923
     136         -0.526624        2.000000        0.42110242        0.09142696        0.10553208        0.10570563        0.03431159        0.03440909        0.01042339        0.02638841        0.01071328
     137         -0.526624        2.000000        0.42110242        0.12110520        0.09069409        0.09086537        0.02597674        0.02607295        0.01088652        0.04305940        0.01025015
     138         -0.526624        2.000000        0.42110242        0.09013250        0.10643850        0.10609366        0.03482076        0.03462705        0.01039510        0.02566128        0.01074158
     139         -0.525097        2.000000        0.46592486        0.10288868        0.12051618        0.12074883        0.03532162        0.03543020        0.00829757        0.02709436        0.00989661
     140         -0.525097        2.000000        0.46592486        0.13705186        0.10348068        0.10362115        0.02737066        0.02743622        0.01064657        0.04303930        0.00754760
     141         -0.525097        2.000000        0.46592486        0.10421315        0.12015683        0.11978370        0.03515390        0.03497975        0.00834712        0.02771252        0.00984705
     142         -0.523261        2.000000        0.47104805        0.08034798        0.07901481        0.16456293        0.02480946        0.04812211        0.01399232        0.02517276        0.01041445
     143         -0.523261        2.000000        0.47104805        0.13560250        0.13693567        0.05138755        0.04059343        0.01728078        0.01041445        0.04023013        0.01399232
     144         -0.521972        2.000000        0.37352226        0.12336656        0.06869191        0.07569937        0.03058027        0.03185679        0.01199404        0.04054012        0.00940336