# Projected DOS for atomic kind Si at iteration step i = 0, E(Fermi) =    -0.426861 a.u.
#     MO Eigenvalue [a.u.]      Occupation                 s                py                pz                px               d-2               d-1                d0               d+1               d+2
       1         -0.736112        2.000000        0.95002575        0.00752051        0.00752051        0.00752051        0.00236782        0.00236782        0.00022136        0.00236782        0.00022136
       2         -0.731812        2.000000        0.89151246        0.00777452        0.01906915        0.01787886        0.00799035        0.00795068        0.00292444        0.00761396        0.00180331
       3         -0.731812        2.000000        0.89151246        0.02763632        0.00887102        0.00821519        0.00765050        0.00762864        0.00155077        0.00827585        0.00317698
       4         -0.731812        2.000000        0.89151246        0.00931169        0.01678236        0.01862848        0.00791414        0.00797566        0.00261641        0.00766518        0.00211134
       5         -0.726226        2.000000        0.82748687        0.02644209        0.01822454        0.01762044        0.01962155        0.01993192        0.00216865        0.01539948        0.00182096
       6         -0.726226        2.000000        0.82748687        0.00909988        0.02691835        0.02626884        0.01515479        0.01548850        0.00157310        0.02430967        0.00241651
       7         -0.726226        2.000000        0.82748687        0.02674510        0.01714418        0.01839779        0.02017662        0.01953253        0.00224266        0.01524380        0.00174695
       8         -0.724535        2.000000        0.80639856        0.03299960        0.03246691        0.00718336        0.01817351        0.00839363        0.01169873        0.01837956        0.00730692
       9         -0.724535        2.000000        0.80639856        0.01543365        0.01596633        0.04124989        0.01179096        0.02157084        0.00730692        0.01158491        0.01169873
      10         -0.722714        2.000000        0.78629358        0.02508098        0.02508098        0.02508098        0.02222052        0.02222052        0.00814734        0.02222052        0.00814734
      11         -0.719486        2.000000        0.73821473        0.02540952        0.02540952        0.02540952        0.03924021        0.03924021        0.00265534        0.03924021        0.00265534
      12         -0.717995        2.000000        0.75873621        0.03002363        0.02566625        0.02554695        0.02392109        0.02369090        0.00375472        0.03232892        0.00511409
      13         -0.717995        2.000000        0.75873621        0.02076435        0.02996952        0.03050296        0.03222451        0.03325382        0.00582513        0.01446257        0.00304368
      14         -0.717995        2.000000        0.75873621        0.03044885        0.02560106        0.02518692        0.02379531        0.02299619        0.00372336        0.03314941        0.00514545
      15         -0.717705        2.000000        0.73125422        0.02833890        0.02608084        0.02681625        0.03710424        0.03617380        0.00443137        0.03424734        0.00558792
      16         -0.717705        2.000000        0.73125422        0.02480443        0.02785352        0.02857804        0.03486144        0.03394478        0.00545870        0.03871915        0.00456059
      17         -0.717705        2.000000        0.73125422        0.02809266        0.02730162        0.02584170        0.03555970        0.03740680        0.00513886        0.03455888        0.00488043
      18         -0.711441        2.000000        0.68948248        0.02128828        0.03690005        0.03506444        0.04843703        0.04752588        0.00809374        0.04068771        0.00561965
      19         -0.711441        2.000000        0.68948248        0.05015215        0.02226446        0.02083616        0.04117227        0.04046329        0.00498068        0.05501507        0.00873270
      20         -0.711441        2.000000        0.68948248        0.02181234        0.03408826        0.03735217        0.04704133        0.04866146        0.00749566        0.04094784        0.00621773
      21         -0.710991        2.000000        0.65072155        0.02962178        0.02962178        0.02962178        0.06938785        0.06938785        0.00199451        0.06938785        0.00199451
      22         -0.710929        2.000000        0.70257957        0.02919781        0.02846073        0.02399266        0.02880173        0.05450102        0.00272462        0.02456218        0.00298952
      23         -0.710929        2.000000        0.70257957        0.02523632        0.02597341        0.03044147        0.04310822        0.01740893        0.00298952        0.04734777        0.00272462
      24         -0.709646        2.000000        0.66556875        0.01517440        0.04547623        0.04294495        0.04708503        0.04644766        0.01589315        0.03945514        0.00971212
      25         -0.709646        2.000000        0.66556875        0.07488953        0.01375337        0.01495268        0.03909733        0.03939931        0.00693512        0.05449119        0.01867015
      26         -0.709646        2.000000        0.66556875        0.01353166        0.04436597        0.04569795        0.04680547        0.04714086        0.01557963        0.03904150        0.01002564
      27         -0.705361        2.000000        0.66426484        0.04588201        0.03124008        0.02812722        0.03759285        0.03792810        0.00986141        0.03601596        0.01128106
      28         -0.705361        2.000000        0.66426484        0.01334080        0.04648873        0.04541978        0.03595061        0.03606574        0.01267790        0.03952056        0.00846457
      29         -0.705361        2.000000        0.66426484        0.04602650        0.02752050        0.03170231        0.03799344        0.03754307        0.00917439        0.03600040        0.01196808
      30         -0.704782        2.000000        0.63645537        0.03928489        0.03232420        0.03197285        0.06207142        0.06249246        0.00499215        0.05373002        0.00568373
      31         -0.704782        2.000000        0.63645537        0.02551400        0.03904977        0.03901817        0.05401177        0.05404964        0.00604776        0.07023250        0.00462812
      32         -0.704782        2.000000        0.63645537        0.03878305        0.03220797        0.03259092        0.06221071        0.06175180        0.00497391        0.05433139        0.00570197
      33         -0.703512        2.000000        0.63195737        0.03644419        0.04222496        0.02247627        0.08033972        0.04299570        0.00490046        0.06940850        0.00256796
      34         -0.703512        2.000000        0.63195737        0.03098609        0.02520532        0.04495401        0.04815623        0.08550025        0.00256796        0.05908745        0.00490046
      35         -0.702252        2.000000        0.62127142        0.03221860        0.03759111        0.03759275        0.06799690        0.06800018        0.00449597        0.05728305        0.00394036
      36         -0.702252        2.000000        0.62127142        0.04251861        0.03248261        0.03240124        0.05780955        0.05764727        0.00370326        0.07782332        0.00473306
      37         -0.702252        2.000000        0.62127142        0.03266525        0.03732874        0.03740847        0.06747369        0.06763268        0.00445526        0.05817376        0.00398107
      38         -0.697610        2.000000        0.61482113        0.02820983        0.03975963        0.03975282        0.05322283        0.05322748        0.00375203        0.06109856        0.00282578
      39         -0.697610        2.000000        0.61482113        0.05240165        0.02776279        0.02755782        0.06140339        0.06154315        0.00230974        0.04460233        0.00426808
      40         -0.697610        2.000000        0.61482113        0.02711079        0.04019985        0.04041163        0.05292265        0.05277824        0.00380496        0.06184798        0.00277286
      41         -0.692964        2.000000        0.59816667        0.02806634        0.03915228        0.03926648        0.06533084        0.06558664        0.00393775        0.04049941        0.00323909
      42         -0.692964        2.000000        0.59816667        0.05143514        0.02748992        0.02756004        0.03920829        0.03936534        0.00282380        0.09284326        0.00435304
      43         -0.692964        2.000000        0.59816667        0.02698362        0.03984290        0.03965858        0.06687776        0.06646490        0.00400371        0.03807423        0.00317313
      44         -0.691903        2.000000        0.57790403        0.04896502        0.04896502        0.04896502        0.05131795        0.05131795        0.01776878        0.05131795        0.01776878
      45         -0.691049        2.000000        0.57515720        0.05818309        0.07036144        0.01741117        0.05782685        0.03945624        0.02512422        0.05360169        0.01216550
      46         -0.691049        2.000000        0.57515720        0.03912071        0.02694236        0.07989263        0.04276300        0.06113361        0.01216550        0.04698817        0.02512422
      47         -0.689005        2.000000        0.56628796        0.05871537        0.03692356        0.03694122        0.05055756        0.05057771        0.00812027        0.07542649        0.00955801
      48         -0.689005        2.000000        0.56628796        0.01541513        0.05928706        0.05787797        0.07607890        0.07447084        0.01033166        0.02601202        0.00734662
      49         -0.689005        2.000000        0.56628796        0.05844966        0.03636954        0.03776097        0.04992530        0.05151320        0.00806549        0.07512325        0.00961280
      50         -0.687481        2.000000        0.56998873        0.04468649        0.04468649        0.04468649        0.05775485        0.05775485        0.00858126        0.05775485        0.00858126
      51         -0.685708        2.000000        0.56296868        0.06240878        0.03617368        0.03818110        0.03991278        0.04153434        0.01016415        0.06110509        0.01177822
      52         -0.685708        2.000000        0.56296868        0.01442488        0.06096951        0.06136917        0.05994247        0.06026531        0.01228979        0.02234443        0.00965258
      53         -0.685708        2.000000        0.56296868        0.05992990        0.03962037        0.03721329        0.04269696        0.04075256        0.01045962        0.05910269        0.01148275
      54         -0.683741        2.000000        0.56301638        0.04576228        0.04657333        0.04352764        0.05421666        0.04545971        0.01230649        0.05188474        0.00629160
      55         -0.683741        2.000000        0.56301638        0.04481322        0.04400217        0.04704786        0.04682407        0.05558103        0.00629160        0.04915600        0.01230649
      56         -0.670865        2.000000        0.48438941        0.05316005        0.04911412        0.04901666        0.05588352        0.05575885        0.00806950        0.06105931        0.00950463
      57         -0.670865        2.000000        0.48438941        0.04461006        0.05338451        0.05329626        0.06134646        0.06123356        0.01039770        0.05012167        0.00717642
      58         -0.670865        2.000000        0.48438941        0.05352072        0.04879220        0.04897791        0.05547171        0.05570927        0.00789399        0.06152071        0.00968013
      59         -0.670672        2.000000        0.48933832        0.04530319        0.03554867        0.03532639        0.04720301        0.04693468        0.00486576        0.05897866        0.00623593
      60         -0.670672        2.000000        0.48933832        0.02630173        0.04494004        0.04493647        0.05854027        0.05853596        0.00689064        0.03604011        0.00421105
      61         -0.670672        2.000000        0.48933832        0.04457333        0.03568954        0.03591538        0.04737307        0.04764570        0.00489613        0.05809757        0.00620556
      62         -0.670075        2.000000        0.49743345        0.03590832        0.03590832        0.03590832        0.04484569        0.04484569        0.00474137        0.04484569        0.00474137
      63         -0.666712        2.000000        0.49333807        0.04335232        0.05272458        0.05228381        0.05727780        0.05661351        0.00967999        0.04315281        0.01041507
      64         -0.666712        2.000000        0.49333807        0.06232124        0.04296743        0.04307203        0.04257275        0.04273039        0.01077633        0.07174099        0.00931873
      65         -0.666712        2.000000        0.49333807        0.04268714        0.05266869        0.05300487        0.05719357        0.05770023        0.00968627        0.04215032        0.01040879
      66         -0.665768        2.000000        0.48298673        0.01662654        0.08726691        0.07922900        0.06473135        0.05963060        0.03065994        0.01990385        0.01794815
      67         -0.665768        2.000000        0.48298673        0.15400399        0.01421327        0.01490519        0.01837242        0.01881151        0.01295539        0.10708187        0.03565270
      68         -0.665768        2.000000        0.48298673        0.01249192        0.08164227        0.08898826        0.06116203        0.06582370        0.02929681        0.01728008        0.01931128
      69         -0.645022        2.000000        0.41701523        0.06903523        0.07665966        0.04807618        0.06203076        0.04811089        0.01641509        0.05831774        0.00801755
      70         -0.645022        2.000000        0.41701523        0.06014549        0.05252106        0.08110453        0.05027550        0.06419537        0.00801755        0.05398852        0.01641509
      71         -0.641860        2.000000        0.41781958        0.08819040        0.05907302        0.05981091        0.04470917        0.04519870        0.01259802        0.06402603        0.01393324
      72         -0.641860        2.000000        0.41781958        0.03307376        0.08705987        0.08694069        0.06327602        0.06319696        0.01447551        0.02746093        0.01205576
      73         -0.641860        2.000000        0.41781958        0.08581016        0.06094144        0.06032273        0.04594871        0.04553825        0.01272337        0.06244695        0.01380790
      74         -0.639371        2.000000        0.40256424        0.08589036        0.05523400        0.05462231        0.04944103        0.04901981        0.01229977        0.07055147        0.01407178
      75         -0.639371        2.000000        0.40256424        0.02607441        0.08513079        0.08454147        0.07002843        0.06962261        0.01494470        0.02936129        0.01142685
      76         -0.639371        2.000000        0.40256424        0.08378190        0.05538187        0.05658289        0.04954286        0.05036990        0.01231285        0.06909956        0.01405869
      77         -0.638701        2.000000        0.40362299        0.06845383        0.06845383        0.06845383        0.04931020        0.04931020        0.01731779        0.04931020        0.01731779
      78         -0.634459        2.000000        0.38870602        0.05071066        0.10501460        0.08461883        0.06835692        0.05678916        0.02303459        0.03755765        0.01123088
      79         -0.634459        2.000000        0.38870602        0.10951873        0.05521479        0.07561056        0.04011224        0.05167999        0.01123088        0.07091150        0.02303459
      80         -0.633119        2.000000        0.38835078        0.04817910        0.07740724        0.07761201        0.05042535        0.05046813        0.01416197        0.04431859        0.01076214
      81         -0.633119        2.000000        0.38835078        0.10910478        0.04698620        0.04710735        0.04406936        0.04409467        0.00881664        0.05704805        0.01610746
      82         -0.633119        2.000000        0.38835078        0.04591446        0.07880490        0.07847898        0.05071737        0.05064927        0.01440755        0.04384543        0.01051656
      83         -0.629745        2.000000        0.39065195        0.08901619        0.08901619        0.08901619        0.05437437        0.05437437        0.01585650        0.05437437        0.01585650
      84         -0.626315        2.000000        0.36735083        0.09125400        0.07694621        0.07731704        0.05649824        0.05629851        0.00833989        0.04879221        0.00970944
      85         -0.626315        2.000000        0.36735083        0.06160598        0.09167452        0.09223675        0.04856573        0.04826291        0.01040118        0.06476033        0.00764815
      86         -0.626315        2.000000        0.36735083        0.09265727        0.07689652        0.07596346        0.05652500        0.05702754        0.00833293        0.04803643        0.00971640
      87         -0.612937        2.000000        0.33107231        0.08152380        0.09524328        0.09534396        0.05054492        0.05046844        0.00788331        0.06096640        0.00835351
      88         -0.612937        2.000000        0.33107231        0.10802863        0.08196183        0.08212058        0.06063366        0.06051307        0.00857114        0.04083303        0.00766568
      89         -0.612937        2.000000        0.33107231        0.08255862        0.09490593        0.09464650        0.05080118        0.05099824        0.00790078        0.06018033        0.00833604
      90         -0.610588        2.000000        0.35093472        0.10165096        0.11688268        0.11796799        0.04603932        0.04650978        0.00737650        0.03943674        0.00772666
      91         -0.610588        2.000000        0.35093472        0.13158300        0.10259821        0.10232042        0.03984735        0.03972694        0.00790687        0.05241155        0.00719630
      92         -0.610588        2.000000        0.35093472        0.10326767        0.11702074        0.11621322        0.04609917        0.04574913        0.00737137        0.04013755        0.00773179
      93         -0.608846        2.000000        0.34187958        0.06962043        0.08892465        0.13777713        0.03889936        0.05938761        0.00636563        0.03080337        0.00773893
      94         -0.608846        2.000000        0.34187958        0.12792770        0.10862349        0.05977101        0.04716086        0.02667262        0.00773893        0.05525686        0.00636563
      95         -0.604655        2.000000        0.33775974        0.11860607        0.10126421        0.10096027        0.05351190        0.05319790        0.00811497        0.07142794        0.01063890
      96         -0.604655        2.000000        0.33775974        0.08184800        0.11944369        0.11953886        0.07229329        0.07239161        0.01215452        0.03345284        0.00659935
      97         -0.604655        2.000000        0.33775974        0.12037648        0.10012265        0.10033142        0.05233254        0.05254823        0.00786131        0.07325696        0.01089256
      98         -0.602386        2.000000        0.31032660        0.07262821        0.13126773        0.12958106        0.07036896        0.06893047        0.01571151        0.02035778        0.01069777
      99         -0.602386        2.000000        0.31032660        0.19241818        0.06993622        0.07112259        0.01806190        0.01907370        0.00806558        0.12252160        0.01834371
     100         -0.602386        2.000000        0.31032660        0.06843061        0.13227305        0.13277335        0.07122635        0.07165303        0.01583684        0.01677782        0.01057245
     101         -0.599262        2.000000        0.32018198        0.08767706        0.11635703        0.13537471        0.05706079        0.04692821        0.00707807        0.07234142        0.00642819
     102         -0.599262        2.000000        0.32018198        0.13859547        0.10991550        0.09089782        0.06049282        0.07062540        0.00642819        0.04521219        0.00707807
     103         -0.598295        2.000000        0.30404289        0.14403877        0.14403877        0.14403877        0.02652719        0.02652719        0.00469338        0.02652719        0.00469338
     104         -0.594136        2.000000        0.29683875        0.12349571        0.13430355        0.13419978        0.04685963        0.04673078        0.00544677        0.03343965        0.00495714
     105         -0.594136        2.000000        0.29683875        0.14406311        0.12397788        0.12395804        0.03403835        0.03401373        0.00475177        0.05897798        0.00565214
     106         -0.594136        2.000000        0.29683875        0.12444021        0.13371761        0.13384121        0.04613208        0.04628555        0.00540733        0.03461243        0.00499658
     107         -0.585197        2.000000        0.26522987        0.12008171        0.13059403        0.13018432        0.05134184        0.05133355        0.00810892        0.05112896        0.00613651
     108         -0.585197        2.000000        0.26522987        0.14144713        0.11960893        0.11980401        0.05111939        0.05112334        0.00513323        0.05156163        0.00911220
     109         -0.585197        2.000000        0.26522987        0.11933122        0.13065710        0.13087174        0.05134312        0.05134747        0.00812600        0.05111376        0.00611943
     110         -0.582931        2.000000        0.24079740        0.12810819        0.12810819        0.12810819        0.04172999        0.04172999        0.00424328        0.04172999        0.00424328
     111         -0.579103        2.000000        0.26013123        0.14522068        0.12013585        0.11989529        0.06036595        0.06026924        0.00380384        0.07044997        0.00396375
     112         -0.579103        2.000000        0.26013123        0.09226308        0.14625082        0.14673791        0.07086408        0.07105989        0.00405597        0.04916119        0.00371162
     113         -0.579103        2.000000        0.26013123        0.14776806        0.11886514        0.11861862        0.05985513        0.05975603        0.00379157        0.07147400        0.00397602
     114         -0.570039        2.000000        0.22924147        0.11959071        0.11959071        0.11959071        0.07211135        0.07211135        0.00715019        0.07211135        0.00715019
     115         -0.560560        2.000000        0.22111432        0.08280451        0.11953810        0.18541293        0.06340576        0.11840389        0.00990894        0.03273731        0.01166712
     116         -0.560560        2.000000        0.22111432        0.17569918        0.13896559        0.07309076        0.07962555        0.02462742        0.01166712        0.11029399        0.00990894
     117         -0.559649        2.000000        0.17836763        0.13239390        0.13925062        0.14047512        0.05630803        0.05240316        0.00280130        0.07817379        0.00312389
     118         -0.559649        2.000000        0.17836763        0.14755854        0.13197599        0.13258511        0.07950648        0.07756403        0.00342629        0.02981447        0.00249891
     119         -0.559649        2.000000        0.17836763        0.13216720        0.14089303        0.13905941        0.05107047        0.05691778        0.00266020        0.07889672        0.00326499
     120         -0.545792        2.000000        0.03010315        0.09709821        0.12698662        0.12764276        0.05138010        0.05173443        0.01101717        0.03523964        0.00933767
     121         -0.545792        2.000000        0.03010315        0.15525464        0.09819066        0.09828228        0.03582959        0.03587907        0.00853551        0.06664552        0.01181933
     122         -0.545792        2.000000        0.03010315        0.09937473        0.12655031        0.12580254        0.05114449        0.05074067        0.01097957        0.03646902        0.00937527
     123         -0.544990        2.000000        0.01153767        0.11646246        0.10468587        0.10509118        0.04008325        0.04018622        0.01541887        0.04307495        0.02049513
     124         -0.544990        2.000000        0.01153767        0.09219640        0.11683151        0.11721159        0.04316871        0.04326526        0.02301059        0.03691046        0.01290341
     125         -0.544990        2.000000        0.01153767        0.11758065        0.10472213        0.10393673        0.04009247        0.03989295        0.01544154        0.04335902        0.02047246
     126         -0.544732        2.000000        0.00783786        0.15065818        0.07060105        0.10296782        0.02066338        0.03416367        0.01470594        0.05405548        0.03352686
     127         -0.544732        2.000000        0.00783786        0.06549319        0.14555031        0.11318355        0.05192497        0.03842468        0.03352686        0.01853288        0.01470594
     128         -0.543292        2.000000        0.00868512        0.11765290        0.10177861        0.10216393        0.04294346        0.04305385        0.01204295        0.04749117        0.01560503
     129         -0.543292        2.000000        0.00868512        0.08504070        0.11843708        0.11811766        0.04771583        0.04762432        0.01751714        0.03814834        0.01013084
     130         -0.543292        2.000000        0.00868512        0.11890184        0.10137975        0.10131385        0.04282919        0.04281031        0.01191188        0.04784897        0.01573610
     131         -0.542483        2.000000        0.00515615        0.10504784        0.10504784        0.10504784        0.04096532        0.04096532        0.01795401        0.04096532        0.01795401
     132         -0.532633        2.000000        0.07703457        0.13595024        0.13659405        0.13653204        0.05743632        0.05652204        0.01204664        0.04794456        0.01184388
     133         -0.532633        2.000000        0.07703457        0.13760729        0.13597476        0.13549428        0.04830610        0.04122237        0.01177979        0.07237445        0.01211073
     134         -0.532633        2.000000        0.07703457        0.13551880        0.13650752        0.13705001        0.05616050        0.06415852        0.01200935        0.04158391        0.01188117
     135         -0.529125        2.000000        0.01615499        0.13136463        0.13136463        0.13136463        0.03480425        0.03480425        0.01298476        0.03480425        0.01298476
     136         -0.526624        2.000000        0.03976388        0.10569474        0.13127503        0.13158979        0.05044348        0.05064021        0.02214744        0.03445524        0.01933754
     137         -0.526624        2.000000        0.03976388        0.15951763        0.10436564        0.10467628        0.03362453        0.03381868        0.01765836        0.06809573        0.02382661
     138         -0.526624        2.000000        0.03976388        0.10334719        0.13291888        0.13229349        0.05147092        0.05108004        0.02242167        0.03298797        0.01906331
     139         -0.525097        2.000000        0.00926448        0.11396438        0.13771152        0.13802494        0.03733605        0.03744455        0.02013341        0.02911557        0.02012363
     140         -0.525097        2.000000        0.00926448        0.15998780        0.11476190        0.11495114        0.02939165        0.02945716        0.02011904        0.04504737        0.02013800
     141         -0.525097        2.000000        0.00926448        0.11574866        0.13722742        0.13672476        0.03716847        0.03699447        0.02013311        0.02973323        0.02012393
     142         -0.523261        2.000000        0.01793659        0.09502502        0.09384529        0.16954720        0.03419865        0.05973881        0.01813530        0.03459667        0.01372088
     143         -0.523261        2.000000        0.01793659        0.14391999        0.14509971        0.06939781        0.05149076        0.02595061        0.01372088        0.05109275        0.01813530
     144         -0.521972        2.000000        0.05424773        0.15408052        0.10994989        0.11560596        0.05254717        0.05380097        0.01643983        0.06232974        0.01297009