# Projected DOS for list 2 of 59 atoms, at iteration step i = 0, E(Fermi) =    -0.426861 a.u.
#     MO Eigenvalue [a.u.]      Occupation                 s                py                pz                px               d-2               d-1                d0               d+1               d+2
       1         -0.736112        2.000000        0.76699383        0.00359465        0.00359465        0.00359465        0.00106650        0.00106650        0.00002903        0.00106650        0.00002903
       2         -0.731812        2.000000        0.60786360        0.00314096        0.01267017        0.01166593        0.00444453        0.00432685        0.00193709        0.00332786        0.00112581
       3         -0.731812        2.000000        0.60786360        0.01989824        0.00406607        0.00351275        0.00343627        0.00337143        0.00094307        0.00529155        0.00211984
       4         -0.731812        2.000000        0.60786360        0.00443786        0.01074082        0.01229838        0.00421844        0.00440096        0.00171420        0.00347983        0.00134871
       5         -0.726226        2.000000        0.43767504        0.01729417        0.01069528        0.01021017        0.01009919        0.01029883        0.00108652        0.00738347        0.00080322
       6         -0.726226        2.000000        0.43767504        0.00336796        0.01767662        0.01715505        0.00722607        0.00744072        0.00060127        0.01311469        0.00128846
       7         -0.726226        2.000000        0.43767504        0.01753749        0.00982772        0.01083440        0.01045622        0.01004193        0.00114682        0.00728333        0.00074292
       8         -0.724535        2.000000        0.48448621        0.02182839        0.02143931        0.00297205        0.00914133        0.00310348        0.00820483        0.00926854        0.00492087
       9         -0.724535        2.000000        0.48448621        0.00899811        0.00938719        0.02785445        0.00520090        0.01123876        0.00492087        0.00507369        0.00820483
      10         -0.722714        2.000000        0.45142539        0.02130180        0.02130180        0.02130180        0.01540886        0.01540886        0.00587225        0.01540886        0.00587225
      11         -0.719486        2.000000        0.33267938        0.01835917        0.01835917        0.01835917        0.02431620        0.02431620        0.00201380        0.02431620        0.00201380
      12         -0.717995        2.000000        0.32321213        0.01542627        0.01375917        0.01371353        0.01262787        0.01249136        0.00232845        0.01761404        0.00337598
      13         -0.717995        2.000000        0.32321213        0.01188375        0.01540556        0.01560965        0.01755212        0.01816254        0.00392392        0.00701861        0.00178052
      14         -0.717995        2.000000        0.32321213        0.01558895        0.01373423        0.01357578        0.01255328        0.01207937        0.00230428        0.01810062        0.00340015
      15         -0.717705        2.000000        0.33663727        0.01984861        0.01571324        0.01706005        0.01864483        0.02009626        0.00274871        0.02310144        0.00320614
      16         -0.717705        2.000000        0.33663727        0.01337564        0.01895970        0.02028657        0.02214347        0.02357343        0.00315503        0.01612563        0.00279981
      17         -0.717705        2.000000        0.33663727        0.01939766        0.01794897        0.01527528        0.02105423        0.01817284        0.00302853        0.02261545        0.00292632
      18         -0.711441        2.000000        0.35834498        0.00771282        0.01943749        0.01805892        0.02768257        0.02719816        0.00543281        0.02356267        0.00346499
      19         -0.711441        2.000000        0.35834498        0.02939001        0.00844595        0.00737327        0.02382028        0.02344336        0.00295677        0.03117975        0.00594103
      20         -0.711441        2.000000        0.35834498        0.00810640        0.01732580        0.01977704        0.02694055        0.02780188        0.00495711        0.02370097        0.00394068
      21         -0.710991        2.000000        0.40713887        0.01518898        0.01518898        0.01518898        0.04726157        0.04726157        0.00079313        0.04726157        0.00079313
      22         -0.710929        2.000000        0.16788275        0.01699085        0.01612494        0.01087598        0.01584044        0.02888042        0.00170141        0.01368927        0.00201992
      23         -0.710929        2.000000        0.16788275        0.01233700        0.01320291        0.01845186        0.02309964        0.01005967        0.00201992        0.02525082        0.00170141
      24         -0.709646        2.000000        0.36162133        0.01284840        0.04170683        0.03929612        0.03935898        0.03860713        0.01143181        0.03035862        0.00692617
      25         -0.709646        2.000000        0.36162133        0.06971905        0.01149506        0.01263724        0.02993654        0.03029276        0.00490189        0.04809542        0.01345609
      26         -0.709646        2.000000        0.36162133        0.01128391        0.04064946        0.04191799        0.03902920        0.03942483        0.01120327        0.02987069        0.00715471
      27         -0.705361        2.000000        0.24195733        0.02267694        0.01547100        0.01393903        0.01968151        0.02112889        0.00569131        0.01287349        0.00674301
      28         -0.705361        2.000000        0.24195733        0.00666199        0.02297553        0.02244945        0.01259139        0.01308841        0.00777781        0.02800409        0.00465651
      29         -0.705361        2.000000        0.24195733        0.02274804        0.01364044        0.01569849        0.02141099        0.01946659        0.00518236        0.01280631        0.00725196
      30         -0.704782        2.000000        0.32595870        0.03242009        0.02328260        0.02282138        0.04694281        0.04699600        0.00309582        0.04588905        0.00328999
      31         -0.704782        2.000000        0.32595870        0.01434266        0.03211145        0.03206996        0.04592464        0.04592943        0.00339219        0.04797379        0.00299362
      32         -0.704782        2.000000        0.32595870        0.03176132        0.02313002        0.02363273        0.04696041        0.04690243        0.00309070        0.04596502        0.00329511
      33         -0.703512        2.000000        0.32444655        0.01422124        0.01688940        0.00777425        0.03983219        0.02588574        0.00209124        0.03574983        0.00089046
      34         -0.703512        2.000000        0.32444655        0.01170202        0.00903386        0.01814901        0.02781298        0.04175943        0.00089046        0.03189534        0.00209124
      35         -0.702252        2.000000        0.28053674        0.01965975        0.02015775        0.02015791        0.04341404        0.04341509        0.00199918        0.04001511        0.00178523
      36         -0.702252        2.000000        0.28053674        0.02061451        0.01968422        0.01967668        0.04018214        0.04013066        0.00169392        0.04653144        0.00209049
      37         -0.702252        2.000000        0.28053674        0.01970115        0.02013343        0.02014082        0.04324806        0.04329850        0.00198351        0.04029769        0.00180090
      38         -0.697610        2.000000        0.18355209        0.01642682        0.02570200        0.02569653        0.03740713        0.03740788        0.00162735        0.03867641        0.00121309
      39         -0.697610        2.000000        0.18355209        0.03585430        0.01606782        0.01590322        0.03872554        0.03874806        0.00098229        0.03601783        0.00185815
      40         -0.697610        2.000000        0.18355209        0.01554423        0.02605552        0.02622560        0.03735875        0.03733548        0.00165102        0.03879719        0.00118942
      41         -0.692964        2.000000        0.14523521        0.01126139        0.02254243        0.02265865        0.03981948        0.04005308        0.00114067        0.01714396        0.00092651
      42         -0.692964        2.000000        0.14523521        0.03504145        0.01067484        0.01074618        0.01596494        0.01610836        0.00079922        0.06494322        0.00126797
      43         -0.692964        2.000000        0.14523521        0.01015963        0.02324521        0.02305764        0.04123210        0.04085509        0.00116089        0.01492934        0.00090629
      44         -0.691903        2.000000        0.38054121        0.03880991        0.03880991        0.03880991        0.04004163        0.04004163        0.01511311        0.04004163        0.01511311
      45         -0.691049        2.000000        0.36539833        0.04516608        0.05546486        0.01068675        0.04295767        0.02577845        0.01921127        0.03900652        0.00948084
      46         -0.691049        2.000000        0.36539833        0.02904571        0.01874693        0.06352505        0.02887076        0.04604998        0.00948084        0.03282191        0.01921127
      47         -0.689005        2.000000        0.28000260        0.04209297        0.02360545        0.02362043        0.03434701        0.03436541        0.00529279        0.05705376        0.00530824
      48         -0.689005        2.000000        0.28000260        0.00535833        0.04257797        0.04138254        0.05764945        0.05618120        0.00531655        0.01193553        0.00528448
      49         -0.689005        2.000000        0.28000260        0.04186754        0.02313542        0.02431587        0.03376972        0.03521957        0.00529220        0.05677689        0.00530883
      50         -0.687481        2.000000        0.11186030        0.03037387        0.03037387        0.03037387        0.03978680        0.03978680        0.00325021        0.03978680        0.00325021
      51         -0.685708        2.000000        0.12505138        0.03568068        0.02005309        0.02124886        0.02369373        0.02481635        0.00558351        0.03836537        0.00698250
      52         -0.685708        2.000000        0.12505138        0.00709788        0.03482334        0.03506141        0.03756047        0.03778398        0.00742589        0.01153100        0.00514012
      53         -0.685708        2.000000        0.12505138        0.03420407        0.02210620        0.02067236        0.02562124        0.02427512        0.00583961        0.03697908        0.00672640
      54         -0.683741        2.000000        0.16931332        0.02374813        0.02654594        0.01603946        0.03048728        0.02359671        0.00585089        0.02865236        0.00361409
      55         -0.683741        2.000000        0.16931332        0.02047423        0.01767641        0.02818289        0.02467029        0.03156085        0.00361409        0.02650521        0.00585089
      56         -0.670865        2.000000        0.16299522        0.02318414        0.02632193        0.02639751        0.03173087        0.03180035        0.00424821        0.02884666        0.00545319
      57         -0.670865        2.000000        0.16299522        0.02981502        0.02301006        0.02307850        0.02868665        0.02874956        0.00620304        0.03494167        0.00349836
      58         -0.670865        2.000000        0.16299522        0.02290442        0.02657159        0.02642757        0.03196036        0.03182797        0.00410085        0.02858955        0.00560055
      59         -0.670672        2.000000        0.04818230        0.02023453        0.01890247        0.01887211        0.02607977        0.02605592        0.00172266        0.02712648        0.00205369
      60         -0.670672        2.000000        0.04818230        0.01763972        0.02018494        0.02018445        0.02708752        0.02708713        0.00221187        0.02508752        0.00156448
      61         -0.670672        2.000000        0.04818230        0.02013486        0.01892170        0.01895255        0.02609489        0.02611912        0.00173000        0.02704817        0.00204636
      62         -0.670075        2.000000        0.00000000        0.01586575        0.01586575        0.01586575        0.02245502        0.02245502        0.00239253        0.02245502        0.00239253
      63         -0.666712        2.000000        0.15107847        0.02514646        0.02632428        0.02626888        0.02897794        0.02881237        0.00265524        0.02545750        0.00389175
      64         -0.666712        2.000000        0.15107847        0.02753030        0.02509809        0.02511123        0.02531292        0.02535221        0.00449944        0.03258267        0.00204755
      65         -0.666712        2.000000        0.15107847        0.02506287        0.02631725        0.02635950        0.02895695        0.02908322        0.00266580        0.02520764        0.00388118
      66         -0.665768        2.000000        0.26714777        0.00911362        0.06431319        0.05803224        0.04992861        0.04533759        0.02096239        0.00958087        0.01208724
      67         -0.665768        2.000000        0.26714777        0.11646268        0.00722785        0.00776852        0.00820248        0.00859769        0.00860138        0.08804690        0.02444825
      68         -0.665768        2.000000        0.26714777        0.00588275        0.05991801        0.06565829        0.04671598        0.05091179        0.02001068        0.00721930        0.01303896
      69         -0.645022        2.000000        0.10405106        0.03203431        0.03716066        0.01794233        0.03568959        0.01639043        0.00755291        0.03054168        0.00464311
      70         -0.645022        2.000000        0.10405106        0.02605722        0.02093088        0.04014921        0.01939154        0.03869070        0.00464311        0.02453945        0.00755291
      71         -0.641860        2.000000        0.08012761        0.04538466        0.02945581        0.02985948        0.02557045        0.02594010        0.00614706        0.04015719        0.00764004
      72         -0.641860        2.000000        0.08012761        0.01523276        0.04476620        0.04470100        0.03959084        0.03953113        0.00824637        0.01254577        0.00554072
      73         -0.641860        2.000000        0.08012761        0.04408254        0.03047795        0.03013948        0.02650646        0.02619651        0.00628721        0.03896478        0.00749988
      74         -0.639371        2.000000        0.09838033        0.05439008        0.03035596        0.02987641        0.02678747        0.02641923        0.00653830        0.04524293        0.00621086
      75         -0.639371        2.000000        0.09838033        0.00749528        0.05379460        0.05333257        0.04478567        0.04443089        0.00604956        0.00923307        0.00669960
      76         -0.639371        2.000000        0.09838033        0.05273709        0.03047189        0.03141347        0.02687649        0.02759952        0.00653588        0.04397362        0.00621327
      77         -0.638701        2.000000        0.08229917        0.03211823        0.03211823        0.03211823        0.02789738        0.02789738        0.00992671        0.02789738        0.00992671
      78         -0.634459        2.000000        0.21716995        0.03691512        0.07109970        0.05826047        0.05016526        0.03842982        0.01506283        0.01891954        0.00453090
      79         -0.634459        2.000000        0.21716995        0.07393507        0.03975049        0.05258973        0.02151115        0.03324659        0.00453090        0.05275688        0.01506283
      80         -0.633119        2.000000        0.04661090        0.01754975        0.03652081        0.03665372        0.02408885        0.02415575        0.00652666        0.01454080        0.00472870
      81         -0.633119        2.000000        0.04661090        0.05709467        0.01677549        0.01685412        0.01415112        0.01419069        0.00369985        0.03444359        0.00755552
      82         -0.633119        2.000000        0.04661090        0.01607985        0.03742798        0.03721644        0.02454543        0.02443896        0.00665654        0.01380101        0.00459883
      83         -0.629745        2.000000        0.24104979        0.06538068        0.06538068        0.06538068        0.04399851        0.04399851        0.01214310        0.04399851        0.01214310
      84         -0.626315        2.000000        0.14250965        0.05705493        0.05244117        0.05256075        0.03088832        0.03080038        0.00385444        0.02749539        0.00479599
      85         -0.626315        2.000000        0.14250965        0.04749450        0.05719053        0.05737183        0.02739566        0.02726234        0.00527155        0.03452608        0.00337888
      86         -0.626315        2.000000        0.14250965        0.05750743        0.05242515        0.05212427        0.03090010        0.03112137        0.00384966        0.02716262        0.00480077
      87         -0.612937        2.000000        0.16457621        0.05466412        0.05441323        0.05441139        0.02680002        0.02674115        0.00259856        0.03482211        0.00316484
      88         -0.612937        2.000000        0.16457621        0.05417943        0.05465611        0.05465321        0.03456598        0.03447316        0.00342694        0.01932414        0.00233646
      89         -0.612937        2.000000        0.16457621        0.05464520        0.05441940        0.05442415        0.02699728        0.02714898        0.00261960        0.03421703        0.00314380
      90         -0.610588        2.000000        0.20773551        0.06496438        0.05564374        0.05497962        0.01693688        0.01707822        0.00425661        0.01495333        0.00460015
      91         -0.610588        2.000000        0.20773551        0.04664829        0.06438473        0.06455471        0.01507669        0.01504051        0.00477695        0.01885123        0.00407981
      92         -0.610588        2.000000        0.20773551        0.06397507        0.05555926        0.05605340        0.01695486        0.01684970        0.00425158        0.01516387        0.00460518
      93         -0.608846        2.000000        0.17307074        0.03990271        0.03921244        0.03746560        0.01281986        0.01723231        0.00283428        0.01107626        0.00329637
      94         -0.608846        2.000000        0.17307074        0.03781779        0.03850806        0.04025490        0.01459910        0.01018664        0.00329637        0.01634269        0.00283428
      95         -0.604655        2.000000        0.25236627        0.03523187        0.03704389        0.03707565        0.02137487        0.02122223        0.00360027        0.03008359        0.00463693
      96         -0.604655        2.000000        0.25236627        0.03907266        0.03514435        0.03513441        0.03050422        0.03055201        0.00525945        0.01162445        0.00297775
      97         -0.604655        2.000000        0.25236627        0.03504689        0.03716317        0.03714136        0.02080160        0.02090644        0.00349608        0.03097265        0.00474112
      98         -0.602386        2.000000        0.21693588        0.04467063        0.08581612        0.08463264        0.04180889        0.04084109        0.01016837        0.00816163        0.00650421
      99         -0.602386        2.000000        0.21693588        0.12872346        0.04278175        0.04361419        0.00661697        0.00729771        0.00458055        0.07689692        0.01209203
     100         -0.602386        2.000000        0.21693588        0.04172531        0.08652152        0.08687257        0.04238574        0.04267281        0.01025996        0.00575305        0.00641262
     101         -0.599262        2.000000        0.22271369        0.03382471        0.04453236        0.05163259        0.02292447        0.01813779        0.00373081        0.03014311        0.00322264
     102         -0.599262        2.000000        0.22271369        0.05283506        0.04212741        0.03502718        0.02454578        0.02933245        0.00322264        0.01732714        0.00373081
     103         -0.598295        2.000000        0.20904580        0.09284525        0.09284525        0.09284525        0.00901905        0.00901905        0.00385753        0.00901905        0.00385753
     104         -0.594136        2.000000        0.21060947        0.06516243        0.07157244        0.07151090        0.01934063        0.01923760        0.00328536        0.00860959        0.00295693
     105         -0.594136        2.000000        0.21060947        0.07736073        0.06544840        0.06543664        0.00908833        0.00906864        0.00281917        0.02903086        0.00342312
     106         -0.594136        2.000000        0.21060947        0.06572261        0.07122493        0.07129824        0.01875886        0.01888159        0.00325891        0.00954738        0.00298339
     107         -0.585197        2.000000        0.20896048        0.05497851        0.05798373        0.05786661        0.02546786        0.02545710        0.00454684        0.02519178        0.00294959
     108         -0.585197        2.000000        0.20896048        0.06108638        0.05484335        0.05489912        0.02517937        0.02518449        0.00213713        0.02575289        0.00535930
     109         -0.585197        2.000000        0.20896048        0.05476396        0.05800177        0.05806313        0.02546952        0.02547515        0.00456068        0.02517207        0.00293576
     110         -0.582931        2.000000        0.14950377        0.04944075        0.04944075        0.04944075        0.01599172        0.01599172        0.00177431        0.01599172        0.00177431
     111         -0.579103        2.000000        0.22069725        0.07279912        0.06384352        0.06375763        0.02894443        0.02889239        0.00185558        0.03437088        0.00186786
     112         -0.579103        2.000000        0.22069725        0.05389259        0.07316689        0.07334079        0.03459373        0.03469909        0.00187494        0.02291489        0.00184850
     113         -0.579103        2.000000        0.22069725        0.07370857        0.06338986        0.06330185        0.02866955        0.02861622        0.00185464        0.03492194        0.00186880
     114         -0.570039        2.000000        0.19478304        0.08182172        0.08182172        0.08182172        0.04119919        0.04119919        0.00463339        0.04119919        0.00463339
     115         -0.560560        2.000000        0.21473509        0.03945684        0.06211008        0.10273444        0.03475025        0.07143826        0.00578518        0.01429202        0.00643613
     116         -0.560560        2.000000        0.21473509        0.09674407        0.07409083        0.03346647        0.04557010        0.00888209        0.00643613        0.06602833        0.00578518
     117         -0.559649        2.000000        0.15879623        0.07474467        0.07250918        0.07210996        0.02815070        0.02555198        0.00080961        0.04270254        0.00098402
     118         -0.559649        2.000000        0.15879623        0.06980056        0.07488092        0.07468233        0.04358946        0.04229674        0.00114752        0.01051903        0.00064611
     119         -0.559649        2.000000        0.15879623        0.07481858        0.07197371        0.07257152        0.02466507        0.02855650        0.00073331        0.04318366        0.00106031
     120         -0.545792        2.000000        0.02400217        0.01665309        0.01716845        0.01717977        0.01496018        0.01505016        0.00223935        0.01086167        0.00258734
     121         -0.545792        2.000000        0.02400217        0.01765587        0.01667193        0.01667351        0.01101148        0.01102404        0.00275355        0.01883649        0.00207314
     122         -0.545792        2.000000        0.02400217        0.01669235        0.01716093        0.01714804        0.01490035        0.01479781        0.00224714        0.01117385        0.00257955
     123         -0.544990        2.000000        0.00616684        0.00493464        0.00387003        0.00390667        0.00686645        0.00678158        0.00728223        0.00440054        0.01086164
     124         -0.544990        2.000000        0.00616684        0.00274096        0.00496800        0.00500236        0.00432326        0.00424368        0.01263536        0.00948163        0.00550851
     125         -0.544990        2.000000        0.00616684        0.00503573        0.00387330        0.00380230        0.00685886        0.00702331        0.00729821        0.00416640        0.01084566
     126         -0.544732        2.000000        0.00363992        0.00490116        0.00115328        0.00266853        0.00040320        0.00062435        0.01006928        0.00095019        0.02121053
     127         -0.544732        2.000000        0.00363992        0.00091416        0.00466203        0.00314678        0.00091529        0.00069415        0.02121053        0.00036830        0.01006928
     128         -0.543292        2.000000        0.00320512        0.00440130        0.00400588        0.00401548        0.00627438        0.00624707        0.00571150        0.00514915        0.00852833
     129         -0.543292        2.000000        0.00320512        0.00358895        0.00442083        0.00441288        0.00509356        0.00511620        0.01004039        0.00746083        0.00419944
     130         -0.543292        2.000000        0.00320512        0.00443241        0.00399594        0.00399430        0.00630265        0.00630732        0.00560785        0.00506062        0.00863197
     131         -0.542483        2.000000        0.00000000        0.00192374        0.00192374        0.00192374        0.00051255        0.00051255        0.01280270        0.00051255        0.01280270
     132         -0.532633        2.000000        0.07112985        0.04289514        0.04781909        0.04734480        0.02557267        0.02488726        0.00389771        0.01845697        0.00412929
     133         -0.532633        2.000000        0.07112985        0.05556840        0.04308269        0.03940793        0.01872800        0.01341752        0.00420249        0.03677138        0.00382451
     134         -0.532633        2.000000        0.07112985        0.03959548        0.04715724        0.05130630        0.02461623        0.03061212        0.00394030        0.01368856        0.00408670
     135         -0.529125        2.000000        0.00740933        0.01284244        0.01284244        0.01284244        0.00953357        0.00953357        0.00112554        0.00953357        0.00112554
     136         -0.526624        2.000000        0.03331411        0.01426778        0.02574296        0.02588415        0.01613189        0.01623113        0.01172405        0.00806683        0.00862426
     137         -0.526624        2.000000        0.03331411        0.03841242        0.01367156        0.01381091        0.00764779        0.00774573        0.00677184        0.02503633        0.01357647
     138         -0.526624        2.000000        0.03331411        0.01321468        0.02648038        0.02619983        0.01665017        0.01645299        0.01202657        0.00732669        0.00832173
     139         -0.525097        2.000000        0.00022108        0.01107570        0.01719534        0.01727611        0.00201443        0.00201435        0.01183584        0.00202122        0.01022703
     140         -0.525097        2.000000        0.00022108        0.02293594        0.01128122        0.01132999        0.00202099        0.00202093        0.00947247        0.00200807        0.01259040
     141         -0.525097        2.000000        0.00022108        0.01153551        0.01707059        0.01694105        0.00201457        0.00201472        0.01178599        0.00202071        0.01027688
     142         -0.523261        2.000000        0.01014413        0.01467704        0.01483048        0.00498427        0.00938919        0.01161669        0.00414298        0.00942390        0.00330644
     143         -0.523261        2.000000        0.01014413        0.00831749        0.00816405        0.01801026        0.01089733        0.00866983        0.00330644        0.01086262        0.00414298
     144         -0.521972        2.000000        0.04875358        0.03071396        0.04125798        0.03990659        0.02196691        0.02194418        0.00444579        0.02178962        0.00356673