# Projected DOS for atomic kind H at iteration step i = 0, E(Fermi) =    -0.426861 a.u.
#     MO Eigenvalue [a.u.]      Occupation                 s
       1         -0.736112        2.000000        0.01986652
       2         -0.731812        2.000000        0.03548227
       3         -0.731812        2.000000        0.03548227
       4         -0.731812        2.000000        0.03548227
       5         -0.726226        2.000000        0.05128350
       6         -0.726226        2.000000        0.05128350
       7         -0.726226        2.000000        0.05128350
       8         -0.724535        2.000000        0.05699921
       9         -0.724535        2.000000        0.05699921
      10         -0.722714        2.000000        0.05550722
      11         -0.719486        2.000000        0.06252539
      12         -0.717995        2.000000        0.07121724
      13         -0.717995        2.000000        0.07121724
      14         -0.717995        2.000000        0.07121724
      15         -0.717705        2.000000        0.06996513
      16         -0.717705        2.000000        0.06996513
      17         -0.717705        2.000000        0.06996513
      18         -0.711441        2.000000        0.06690074
      19         -0.711441        2.000000        0.06690074
      20         -0.711441        2.000000        0.06690074
      21         -0.710991        2.000000        0.04826054
      22         -0.710929        2.000000        0.10219017
      23         -0.710929        2.000000        0.10219017
      24         -0.709646        2.000000        0.07224256
      25         -0.709646        2.000000        0.07224256
      26         -0.709646        2.000000        0.07224256
      27         -0.705361        2.000000        0.09780647
      28         -0.705361        2.000000        0.09780647
      29         -0.705361        2.000000        0.09780647
      30         -0.704782        2.000000        0.07099291
      31         -0.704782        2.000000        0.07099291
      32         -0.704782        2.000000        0.07099291
      33         -0.703512        2.000000        0.06668486
      34         -0.703512        2.000000        0.06668486
      35         -0.702252        2.000000        0.06960966
      36         -0.702252        2.000000        0.06960966
      37         -0.702252        2.000000        0.06960966
      38         -0.697610        2.000000        0.10332991
      39         -0.697610        2.000000        0.10332991
      40         -0.697610        2.000000        0.10332991
      41         -0.692964        2.000000        0.11675450
      42         -0.692964        2.000000        0.11675450
      43         -0.692964        2.000000        0.11675450
      44         -0.691903        2.000000        0.08570948
      45         -0.691049        2.000000        0.09071259
      46         -0.691049        2.000000        0.09071259
      47         -0.689005        2.000000        0.10689185
      48         -0.689005        2.000000        0.10689185
      49         -0.689005        2.000000        0.10689185
      50         -0.687481        2.000000        0.10552473
      51         -0.685708        2.000000        0.13577319
      52         -0.685708        2.000000        0.13577319
      53         -0.685708        2.000000        0.13577319
      54         -0.683741        2.000000        0.13096118
      55         -0.683741        2.000000        0.13096118
      56         -0.670865        2.000000        0.17404395
      57         -0.670865        2.000000        0.17404395
      58         -0.670865        2.000000        0.17404395
      59         -0.670672        2.000000        0.23026539
      60         -0.670672        2.000000        0.23026539
      61         -0.670672        2.000000        0.23026539
      62         -0.670075        2.000000        0.25082178
      63         -0.666712        2.000000        0.18116204
      64         -0.666712        2.000000        0.18116204
      65         -0.666712        2.000000        0.18116204
      66         -0.665768        2.000000        0.14101693
      67         -0.665768        2.000000        0.14101693
      68         -0.665768        2.000000        0.14101693
      69         -0.645022        2.000000        0.19632167
      70         -0.645022        2.000000        0.19632167
      71         -0.641860        2.000000        0.19464092
      72         -0.641860        2.000000        0.19464092
      73         -0.641860        2.000000        0.19464092
      74         -0.639371        2.000000        0.20630523
      75         -0.639371        2.000000        0.20630523
      76         -0.639371        2.000000        0.20630523
      77         -0.638701        2.000000        0.20844934
      78         -0.634459        2.000000        0.17398069
      79         -0.634459        2.000000        0.17398069
      80         -0.633119        2.000000        0.23831470
      81         -0.633119        2.000000        0.23831470
      82         -0.633119        2.000000        0.23831470
      83         -0.629745        2.000000        0.14746337
      84         -0.626315        2.000000        0.20749361
      85         -0.626315        2.000000        0.20749361
      86         -0.626315        2.000000        0.20749361
      87         -0.612937        2.000000        0.21860008
      88         -0.612937        2.000000        0.21860008
      89         -0.612937        2.000000        0.21860008
      90         -0.610588        2.000000        0.16547465
      91         -0.610588        2.000000        0.16547465
      92         -0.610588        2.000000        0.16547465
      93         -0.608846        2.000000        0.21860332
      94         -0.608846        2.000000        0.21860332
      95         -0.604655        2.000000        0.14451811
      96         -0.604655        2.000000        0.14451811
      97         -0.604655        2.000000        0.14451811
      98         -0.602386        2.000000        0.17012991
      99         -0.602386        2.000000        0.17012991
     100         -0.602386        2.000000        0.17012991
     101         -0.599262        2.000000        0.15057255
     102         -0.599262        2.000000        0.15057255
     103         -0.598295        2.000000        0.17487248
     104         -0.594136        2.000000        0.17372825
     105         -0.594136        2.000000        0.17372825
     106         -0.594136        2.000000        0.17372825
     107         -0.585197        2.000000        0.18586029
     108         -0.585197        2.000000        0.18586029
     109         -0.585197        2.000000        0.18586029
     110         -0.582931        2.000000        0.24120150
     111         -0.579103        2.000000        0.15576419
     112         -0.579103        2.000000        0.15576419
     113         -0.579103        2.000000        0.15576419
     114         -0.570039        2.000000        0.18135196
     115         -0.560560        2.000000        0.15500712
     116         -0.560560        2.000000        0.15500712
     117         -0.559649        2.000000        0.21670256
     118         -0.559649        2.000000        0.21670256
     119         -0.559649        2.000000        0.21670256
     120         -0.545792        2.000000        0.45946026
     121         -0.545792        2.000000        0.45946026
     122         -0.545792        2.000000        0.45946026
     123         -0.544990        2.000000        0.50296440
     124         -0.544990        2.000000        0.50296440
     125         -0.544990        2.000000        0.50296440
     126         -0.544732        2.000000        0.51081977
     127         -0.544732        2.000000        0.51081977
     128         -0.543292        2.000000        0.50858298
     129         -0.543292        2.000000        0.50858298
     130         -0.543292        2.000000        0.50858298
     131         -0.542483        2.000000        0.52089636
     132         -0.532633        2.000000        0.32809564
     133         -0.532633        2.000000        0.32809564
     134         -0.532633        2.000000        0.32809564
     135         -0.529125        2.000000        0.45936884
     136         -0.526624        2.000000        0.41465266
     137         -0.526624        2.000000        0.41465266
     138         -0.526624        2.000000        0.41465266
     139         -0.525097        2.000000        0.45688146
     140         -0.525097        2.000000        0.45688146
     141         -0.525097        2.000000        0.45688146
     142         -0.523261        2.000000        0.46325559
     143         -0.523261        2.000000        0.46325559
     144         -0.521972        2.000000        0.36802810
     145         -0.521972        2.000000        0.36802810
     146         -0.521972        2.000000        0.36802810
     147         -0.512110        2.000000        0.33000221
     148         -0.512110        2.000000        0.33000221
     149         -0.512110        2.000000        0.33000221
     150         -0.511147        2.000000        0.33265339
     151         -0.511147        2.000000        0.33265339
     152         -0.511116        2.000000        0.32822326
     153         -0.511116        2.000000        0.32822326
     154         -0.511116        2.000000        0.32822326
     155         -0.510514        2.000000        0.35938434
     156         -0.510514        2.000000        0.35938434
     157         -0.510514        2.000000        0.35938434
     158         -0.509809        2.000000        0.33442827
     159         -0.509809        2.000000        0.33442827
     160         -0.509809        2.000000        0.33442827
     161         -0.509162        2.000000        0.35004102
     162         -0.509162        2.000000        0.35004102
     163         -0.508546        2.000000        0.34199859
     164         -0.507678        2.000000        0.42903321
     165         -0.507678        2.000000        0.42903321
     166         -0.507678        2.000000        0.42903321
     167         -0.506264        2.000000        0.45098902
     168         -0.506264        2.000000        0.45098902
     169         -0.506264        2.000000        0.45098902
     170         -0.504802        2.000000        0.34207061
     171         -0.504802        2.000000        0.34207061
     172         -0.504802        2.000000        0.34207061
     173         -0.503131        2.000000        0.47225257
     174         -0.503131        2.000000        0.47225257
     175         -0.503131        2.000000        0.47225257
     176         -0.503035        2.000000        0.43330152
     177         -0.503035        2.000000        0.43330152
     178         -0.502680        2.000000        0.49545167
     179         -0.501687        2.000000        0.22691385
     180         -0.501687        2.000000        0.22691385
     181         -0.501687        2.000000        0.22691385
     182         -0.501307        2.000000        0.25927060
     183         -0.498208        2.000000        0.26717857
     184         -0.498208        2.000000        0.26717857
     185         -0.498208        2.000000        0.26717857
     186         -0.494782        2.000000        0.21980843
     187         -0.490382        2.000000        0.13947236
     188         -0.487321        2.000000        0.13098830
     189         -0.485059        2.000000        0.04400745
     190         -0.485059        2.000000        0.04400745
     191         -0.484007        2.000000        0.15962500
     192         -0.484007        2.000000        0.15962500
     193         -0.484007        2.000000        0.15962500
     194         -0.483978        2.000000        0.04053552
     195         -0.483978        2.000000        0.04053552
     196         -0.483978        2.000000        0.04053552
     197         -0.481146        2.000000        0.09093748
     198         -0.481146        2.000000        0.09093748
     199         -0.481146        2.000000        0.09093748
     200         -0.478865        2.000000        0.14687031
     201         -0.478865        2.000000        0.14687031
     202         -0.478865        2.000000        0.14687031
     203         -0.477074        2.000000        0.08428142
     204         -0.477074        2.000000        0.08428142
     205         -0.477074        2.000000        0.08428142
     206         -0.476667        2.000000        0.16221715
     207         -0.476667        2.000000        0.16221715
     208         -0.473970        2.000000        0.04992834
     209         -0.473933        2.000000        0.15580919
     210         -0.473933        2.000000        0.15580919
     211         -0.473933        2.000000        0.15580919
     212         -0.470852        2.000000        0.09467524
     213         -0.470852        2.000000        0.09467524
     214         -0.470852        2.000000        0.09467524
     215         -0.470485        2.000000        0.06396217
     216         -0.470485        2.000000        0.06396217
     217         -0.470485        2.000000        0.06396217
     218         -0.469823        2.000000        0.05959860
     219         -0.469776        2.000000        0.03927606
     220         -0.467848        2.000000        0.02799974
     221         -0.467848        2.000000        0.02799974
     222         -0.467848        2.000000        0.02799974
     223         -0.466713        2.000000        0.11168492
     224         -0.466713        2.000000        0.11168492
     225         -0.466713        2.000000        0.11168492
     226         -0.464453        2.000000        0.05212432
     227         -0.464453        2.000000        0.05212432
     228         -0.464453        2.000000        0.05212432
     229         -0.463327        2.000000        0.06386261
     230         -0.463327        2.000000        0.06386261
     231         -0.463327        2.000000        0.06386261
     232         -0.462946        2.000000        0.10811274
     233         -0.461721        2.000000        0.06085572
     234         -0.461721        2.000000        0.06085572
     235         -0.461721        2.000000        0.06085572
     236         -0.460758        2.000000        0.03999285
     237         -0.460758        2.000000        0.03999285
     238         -0.460758        2.000000        0.03999285
     239         -0.459819        2.000000        0.07938974
     240         -0.459819        2.000000        0.07938974
     241         -0.459661        2.000000        0.01645764
     242         -0.459661        2.000000        0.01645764
     243         -0.455037        2.000000        0.02348632
     244         -0.455037        2.000000        0.02348632
     245         -0.455037        2.000000        0.02348632
     246         -0.454729        2.000000        0.02522096
     247         -0.454729        2.000000        0.02522096
     248         -0.453762        2.000000        0.05048025
     249         -0.453762        2.000000        0.05048025
     250         -0.453762        2.000000        0.05048025
     251         -0.453427        2.000000        0.00338337
     252         -0.452825        2.000000        0.02736719
     253         -0.452825        2.000000        0.02736719
     254         -0.452825        2.000000        0.02736719
     255         -0.451621        2.000000        0.01963758
     256         -0.451621        2.000000        0.01963758
     257         -0.451621        2.000000        0.01963758
     258         -0.448954        2.000000        0.01896868
     259         -0.448954        2.000000        0.01896868
     260         -0.448954        2.000000        0.01896868
     261         -0.447396        2.000000        0.06797050
     262         -0.447396        2.000000        0.06797050
     263         -0.446552        2.000000        0.03969864
     264         -0.446552        2.000000        0.03969864
     265         -0.446552        2.000000        0.03969864
     266         -0.446508        2.000000        0.06699221
     267         -0.446508        2.000000        0.06699221
     268         -0.446508        2.000000        0.06699221
     269         -0.445218        2.000000        0.03205973
     270         -0.445218        2.000000        0.03205973
     271         -0.441660        2.000000        0.01655465
     272         -0.441660        2.000000        0.01655465
     273         -0.441660        2.000000        0.01655465
     274         -0.441641        2.000000        0.03871682
     275         -0.441641        2.000000        0.03871682
     276         -0.441641        2.000000        0.03871682
     277         -0.440295        2.000000        0.02997077
     278         -0.440295        2.000000        0.02997077
     279         -0.439252        2.000000        0.02362346
     280         -0.439252        2.000000        0.02362346
     281         -0.439252        2.000000        0.02362346
     282         -0.436669        2.000000        0.04805622
     283         -0.436669        2.000000        0.04805622
     284         -0.436305        2.000000        0.01558421
     285         -0.436305        2.000000        0.01558421
     286         -0.436305        2.000000        0.01558421
     287         -0.432391        2.000000        0.03233828
     288         -0.432391        2.000000        0.03233828
     289         -0.432391        2.000000        0.03233828
     290         -0.430587        2.000000        0.04465183
     291         -0.430587        2.000000        0.04465183
     292         -0.430587        2.000000        0.04465183
     293         -0.427796        2.000000        0.00831049
     294         -0.426861        2.000000        0.00948839
     295         -0.426861        2.000000        0.00948839
     296         -0.426861        2.000000        0.00948839
     297         -0.355448        0.000000        0.02669419
     298         -0.355448        0.000000        0.02669419
     299         -0.353320        0.000000        0.00666772
     300         -0.351178        0.000000        0.01734681
     301         -0.351178        0.000000        0.01734681
     302         -0.351178        0.000000        0.01734681
     303         -0.347004        0.000000        0.01953792
     304         -0.347004        0.000000        0.01953792
     305         -0.347004        0.000000        0.01953792
     306         -0.345962        0.000000        0.03807687
     307         -0.345962        0.000000        0.03807687
     308         -0.345962        0.000000        0.03807687
     309         -0.343474        0.000000        0.05280945
     310         -0.342920        0.000000        0.01087633
     311         -0.342920        0.000000        0.01087633
     312         -0.340221        0.000000        0.03439118
     313         -0.340221        0.000000        0.03439118
     314         -0.340221        0.000000        0.03439118
     315         -0.338905        0.000000        0.04095625
     316         -0.338905        0.000000        0.04095625
     317         -0.338905        0.000000        0.04095625
     318         -0.338637        0.000000        0.01994630
     319         -0.338637        0.000000        0.01994630
     320         -0.338637        0.000000        0.01994630
     321         -0.337804        0.000000        0.05206289
     322         -0.337332        0.000000        0.02936357
     323         -0.337332        0.000000        0.02936357
     324         -0.336932        0.000000        0.03516995
     325         -0.336932        0.000000        0.03516995
     326         -0.333745        0.000000        0.02239999
     327         -0.333745        0.000000        0.02239999
     328         -0.333745        0.000000        0.02239999
     329         -0.330512        0.000000        0.03868277
     330         -0.330512        0.000000        0.03868277
     331         -0.330512        0.000000        0.03868277
     332         -0.326804        0.000000        0.01367311
     333         -0.326804        0.000000        0.01367311
     334         -0.326804        0.000000        0.01367311
     335         -0.326068        0.000000        0.02934194
     336         -0.326068        0.000000        0.02934194
     337         -0.326068        0.000000        0.02934194
     338         -0.325774        0.000000        0.04646833
     339         -0.323826        0.000000        0.02465699
     340         -0.323336        0.000000        0.03325100
     341         -0.323336        0.000000        0.03325100
     342         -0.323336        0.000000        0.03325100
     343         -0.323158        0.000000        0.03322594
     344         -0.323158        0.000000        0.03322594
     345         -0.323158        0.000000        0.03322594
     346         -0.321370        0.000000        0.02120567
     347         -0.321370        0.000000        0.02120567
     348         -0.321302        0.000000        0.03391376
     349         -0.321302        0.000000        0.03391376
     350         -0.321302        0.000000        0.03391376
     351         -0.320819        0.000000        0.01791653
     352         -0.320819        0.000000        0.01791653
     353         -0.320819        0.000000        0.01791653
     354         -0.319354        0.000000        0.02850114
     355         -0.319354        0.000000        0.02850114
     356         -0.319354        0.000000        0.02850114
     357         -0.317427        0.000000        0.03965633
     358         -0.317427        0.000000        0.03965633
     359         -0.317427        0.000000        0.03965633
     360         -0.316912        0.000000        0.01586475
     361         -0.316427        0.000000        0.03166283
     362         -0.316427        0.000000        0.03166283
     363         -0.316427        0.000000        0.03166283
     364         -0.315405        0.000000        0.01928615
     365         -0.315405        0.000000        0.01928615
     366         -0.315264        0.000000        0.04195136
     367         -0.315264        0.000000        0.04195136
     368         -0.315264        0.000000        0.04195136
     369         -0.314025        0.000000        0.07604713
     370         -0.312771        0.000000        0.04957571
     371         -0.312771        0.000000        0.04957571
     372         -0.312771        0.000000        0.04957571
     373         -0.311578        0.000000        0.02529563
     374         -0.311578        0.000000        0.02529563
     375         -0.311270        0.000000        0.02435185
     376         -0.311270        0.000000        0.02435185
     377         -0.311270        0.000000        0.02435185
     378         -0.311183        0.000000        0.03629209
     379         -0.311183        0.000000        0.03629209
     380         -0.311183        0.000000        0.03629209
     381         -0.307738        0.000000        0.04736851
     382         -0.307738        0.000000        0.04736851
     383         -0.307738        0.000000        0.04736851
     384         -0.307189        0.000000        0.04013634
     385         -0.306808        0.000000        0.02286181
     386         -0.306808        0.000000        0.02286181
     387         -0.306808        0.000000        0.02286181
     388         -0.306636        0.000000        0.03765783
     389         -0.306636        0.000000        0.03765783
     390         -0.305397        0.000000        0.03314237
     391         -0.305397        0.000000        0.03314237
     392         -0.305397        0.000000        0.03314237
     393         -0.304218        0.000000        0.02512401
     394         -0.304218        0.000000        0.02512401
     395         -0.304218        0.000000        0.02512401
     396         -0.304070        0.000000        0.01925610
     397         -0.301621        0.000000        0.03492738
     398         -0.301621        0.000000        0.03492738
     399         -0.301621        0.000000        0.03492738
     400         -0.301612        0.000000        0.02983159
     401         -0.301612        0.000000        0.02983159
     402         -0.299562        0.000000        0.01992763
     403         -0.299562        0.000000        0.01992763
     404         -0.299562        0.000000        0.01992763
     405         -0.299251        0.000000        0.03727544
     406         -0.299251        0.000000        0.03727544
     407         -0.293446        0.000000        0.02773112
     408         -0.293446        0.000000        0.02773112
     409         -0.293328        0.000000        0.01693066
     410         -0.293328        0.000000        0.01693066
     411         -0.293328        0.000000        0.01693066
     412         -0.293127        0.000000        0.02383988
     413         -0.293127        0.000000        0.02383988
     414         -0.293127        0.000000        0.02383988
     415         -0.292223        0.000000        0.00648307
     416         -0.291422        0.000000        0.01277823
     417         -0.290545        0.000000        0.02710689
     418         -0.290545        0.000000        0.02710689
     419         -0.290545        0.000000        0.02710689
     420         -0.284382        0.000000        0.02548980
     421         -0.283404        0.000000        0.02030666
     422         -0.283404        0.000000        0.02030666
     423         -0.283404        0.000000        0.02030666
     424         -0.281835        0.000000        0.02318187
     425         -0.281835        0.000000        0.02318187
     426         -0.281835        0.000000        0.02318187
     427         -0.280961        0.000000        0.00943910
     428         -0.279875        0.000000        0.03597816
     429         -0.279875        0.000000        0.03597816
     430         -0.279875        0.000000        0.03597816
     431         -0.276211        0.000000        0.02502718
     432         -0.276211        0.000000        0.02502718
     433         -0.276211        0.000000        0.02502718
     434         -0.274431        0.000000        0.03195690
     435         -0.274431        0.000000        0.03195690
     436         -0.272831        0.000000        0.05179330
     437         -0.272461        0.000000        0.01566613
     438         -0.272461        0.000000        0.01566613
     439         -0.272461        0.000000        0.01566613
     440         -0.270085        0.000000        0.03812073
     441         -0.270085        0.000000        0.03812073
     442         -0.270085        0.000000        0.03812073
     443         -0.268631        0.000000        0.02015423
     444         -0.268631        0.000000        0.02015423
     445         -0.268631        0.000000        0.02015423
     446         -0.264791        0.000000        0.02869913
     447         -0.264791        0.000000        0.02869913
     448         -0.264791        0.000000        0.02869913
     449         -0.261266        0.000000        0.03945400
     450         -0.261266        0.000000        0.03945400
     451         -0.261266        0.000000        0.03945400
     452         -0.260807        0.000000        0.03902786
     453         -0.260807        0.000000        0.03902786
     454         -0.260564        0.000000        0.00687567
     455         -0.260564        0.000000        0.00687567
     456         -0.259344        0.000000        0.00917441
     457         -0.259344        0.000000        0.00917441
     458         -0.259344        0.000000        0.00917441
     459         -0.258565        0.000000        0.03539558
     460         -0.258565        0.000000        0.03539558
     461         -0.258565        0.000000        0.03539558
     462         -0.255000        0.000000        0.01972006
     463         -0.255000        0.000000        0.01972006
     464         -0.254287        0.000000        0.02785885
     465         -0.254287        0.000000        0.02785885
     466         -0.254287        0.000000        0.02785885
     467         -0.251421        0.000000        0.02864869
     468         -0.251421        0.000000        0.02864869
     469         -0.251421        0.000000        0.02864869
     470         -0.249483        0.000000        0.01665436
     471         -0.247994        0.000000        0.03362762
     472         -0.247994        0.000000        0.03362762
     473         -0.247994        0.000000        0.03362762
     474         -0.241784        0.000000        0.04418101
     475         -0.241784        0.000000        0.04418101
     476         -0.241784        0.000000        0.04418101
     477         -0.240518        0.000000        0.03702920
     478         -0.240518        0.000000        0.03702920
     479         -0.240518        0.000000        0.03702920
     480         -0.240410        0.000000        0.03455969
     481         -0.240410        0.000000        0.03455969
     482         -0.238055        0.000000        0.01097369
     483         -0.237794        0.000000        0.02214530
     484         -0.237794        0.000000        0.02214530
     485         -0.237794        0.000000        0.02214530
     486         -0.237530        0.000000        0.02676930
     487         -0.237530        0.000000        0.02676930
     488         -0.237530        0.000000        0.02676930
     489         -0.235148        0.000000        0.01702354