# Projected DOS for list 1 of 268 atoms, at iteration step i = 0, E(Fermi) =    -0.435913 a.u.
#     MO Eigenvalue [a.u.]      Occupation                 s                py                pz                px               d-2               d-1                d0               d+1               d+2
       1         -0.751701        2.000000        0.17853272        0.00261317        0.00261317        0.00261317        0.00070134        0.00070134        0.00029212        0.00070134        0.00029212
       2         -0.749353        2.000000        0.27302234        0.00412777        0.00426512        0.00416855        0.00190740        0.00197291        0.00071875        0.00200058        0.00063424
       3         -0.749353        2.000000        0.27302234        0.00430692        0.00402861        0.00422590        0.00206784        0.00193400        0.00059058        0.00187905        0.00076241
       4         -0.749353        2.000000        0.27302234        0.00412674        0.00426771        0.00416698        0.00190565        0.00197398        0.00072015        0.00200127        0.00063284
       5         -0.746285        2.000000        0.35096655        0.00573287        0.00573287        0.00851853        0.00290410        0.00589837        0.00108769        0.00290410        0.00144148
       6         -0.746285        2.000000        0.35096655        0.00758997        0.00758997        0.00480431        0.00490028        0.00190601        0.00144148        0.00490028        0.00108769
       7         -0.745412        2.000000        0.36156828        0.00638645        0.00587446        0.00624753        0.00551609        0.00514615        0.00111985        0.00500840        0.00121683
       8         -0.745412        2.000000        0.36156828        0.00573644        0.00667763        0.00609437        0.00471967        0.00529802        0.00125186        0.00565295        0.00108481
       9         -0.745412        2.000000        0.36156828        0.00638555        0.00595635        0.00616653        0.00543488        0.00522647        0.00113331        0.00500929        0.00120337
      10         -0.744593        2.000000        0.31691777        0.00341428        0.00341428        0.00341428        0.00434872        0.00434872        0.00068823        0.00434872        0.00068823
      11         -0.741467        2.000000        0.40511457        0.00811650        0.00989599        0.00867742        0.00766788        0.00709602        0.00188973        0.00683278        0.00152506
      12         -0.741467        2.000000        0.40511457        0.01044348        0.00690095        0.00934548        0.00626234        0.00740953        0.00134328        0.00792481        0.00207152
      13         -0.741467        2.000000        0.40511457        0.00812993        0.00989297        0.00866701        0.00766646        0.00709113        0.00188918        0.00683908        0.00152561
      14         -0.741084        2.000000        0.44859923        0.00997227        0.00953538        0.00984459        0.00716790        0.00822005        0.00166006        0.00865452        0.00173379
      15         -0.741084        2.000000        0.44859923        0.00940931        0.01027770        0.00966523        0.00969382        0.00760973        0.00177010        0.00673892        0.00162375
      16         -0.741084        2.000000        0.44859923        0.00997066        0.00953916        0.00984242        0.00718075        0.00821269        0.00166062        0.00864903        0.00173323
      17         -0.739806        2.000000        0.37053134        0.00947955        0.00947955        0.00947955        0.01126773        0.01126773        0.00170271        0.01126773        0.00170271
      18         -0.738690        2.000000        0.35430895        0.00450631        0.00499916        0.00465478        0.00912262        0.00981554        0.00093361        0.01011426        0.00090385
      19         -0.738690        2.000000        0.35430895        0.00514958        0.00415406        0.00485661        0.01082300        0.00940944        0.00088855        0.00881998        0.00094892
      20         -0.738690        2.000000        0.35430895        0.00450436        0.00500702        0.00464886        0.00910680        0.00982744        0.00093403        0.01011818        0.00090343
      21         -0.735676        2.000000        0.44356702        0.01278177        0.01279710        0.01265814        0.01263596        0.00934985        0.00194073        0.01227345        0.00288844
      22         -0.735676        2.000000        0.44356702        0.01270957        0.01269424        0.01283320        0.01020354        0.01348966        0.00288844        0.01056606        0.00194073
      23         -0.735100        2.000000        0.42260836        0.01069549        0.01069549        0.01069549        0.00909481        0.00909481        0.00183207        0.00909481        0.00183207
      24         -0.734993        2.000000        0.47131916        0.01491356        0.01100524        0.01375007        0.01150017        0.01331158        0.00215928        0.01407941        0.00218891
      25         -0.734993        2.000000        0.47131916        0.00992127        0.01738905        0.01235854        0.01571307        0.01239326        0.00220193        0.01078483        0.00214627
      26         -0.734993        2.000000        0.47131916        0.01483403        0.01127458        0.01356026        0.01167792        0.01318632        0.00216108        0.01402692        0.00218711
      27         -0.734441        2.000000        0.45257063        0.01245067        0.01369824        0.01281905        0.01595252        0.01322217        0.00201576        0.01207814        0.00190957
      28         -0.734441        2.000000        0.45257063        0.01407530        0.01155322        0.01333944        0.00929108        0.01483826        0.00185511        0.01712349        0.00207022
      29         -0.734441        2.000000        0.45257063        0.01244199        0.01371650        0.01280947        0.01600924        0.01319240        0.00201712        0.01205120        0.00190820
      30         -0.733451        2.000000        0.42637108        0.00812095        0.00763273        0.01069226        0.00895449        0.01871209        0.00149227        0.01051153        0.00147186
      31         -0.733451        2.000000        0.42637108        0.00950968        0.00999790        0.00693836        0.01649759        0.00673998        0.00147186        0.01494055        0.00149227
      32         -0.731204        2.000000        0.29895143        0.00790792        0.00689858        0.00774080        0.01589498        0.01492416        0.00087388        0.01473152        0.00083001
      33         -0.731204        2.000000        0.29895143        0.00673225        0.00864142        0.00717363        0.01388602        0.01557793        0.00081194        0.01608670        0.00089195
      34         -0.731204        2.000000        0.29895143        0.00790713        0.00700730        0.00763287        0.01576965        0.01504857        0.00087002        0.01473243        0.00083387
      35         -0.730661        2.000000        0.27508011        0.00406174        0.00406174        0.00406174        0.01388387        0.01388387        0.00088406        0.01388387        0.00088406
      36         -0.727979        2.000000        0.42001737        0.01437212        0.01724998        0.01529914        0.01622269        0.01617779        0.00314886        0.01615646        0.00236322
      37         -0.727979        2.000000        0.42001737        0.01819476        0.01231430        0.01641218        0.01610910        0.01620341        0.00194428        0.01624444        0.00356780
      38         -0.727979        2.000000        0.42001737        0.01435436        0.01735697        0.01520992        0.01622516        0.01617574        0.00317498        0.01615605        0.00233710
      39         -0.727775        2.000000        0.49338705        0.01705155        0.01862969        0.01754541        0.01852338        0.01795049        0.00264032        0.01768955        0.00291605
      40         -0.727775        2.000000        0.49338705        0.01913961        0.01594478        0.01814225        0.01710478        0.01826584        0.00305740        0.01879280        0.00249896
      41         -0.727775        2.000000        0.49338705        0.01703549        0.01865217        0.01753898        0.01853526        0.01794709        0.00263682        0.01768107        0.00291954
      42         -0.727107        2.000000        0.45891018        0.01485814        0.01450926        0.01471964        0.01316593        0.01384835        0.00249122        0.01429760        0.00278916
      43         -0.727107        2.000000        0.45891018        0.01437810        0.01506905        0.01463989        0.01498175        0.01358966        0.00293855        0.01274048        0.00234183
      44         -0.727107        2.000000        0.45891018        0.01485080        0.01450873        0.01472751        0.01316421        0.01387387        0.00249079        0.01427381        0.00278958
      45         -0.727012        2.000000        0.40269330        0.01467488        0.01467488        0.02611697        0.01724303        0.02950871        0.00207583        0.01724303        0.00282590
      46         -0.727012        2.000000        0.40269330        0.02230294        0.02230294        0.01086085        0.02542015        0.01315447        0.00282590        0.02542015        0.00207583
      47         -0.725730        2.000000        0.36037438        0.01225567        0.01485919        0.01310585        0.02004057        0.01965961        0.00183730        0.01947489        0.00160120
      48         -0.725730        2.000000        0.36037438        0.01569989        0.01046753        0.01405329        0.01908637        0.01986547        0.00148032        0.02022323        0.00195817
      49         -0.725730        2.000000        0.36037438        0.01226515        0.01489399        0.01306157        0.02004813        0.01964999        0.00184013        0.01947695        0.00159837
      50         -0.724611        2.000000        0.38425290        0.00999522        0.00973999        0.00992122        0.01609938        0.01891985        0.00106372        0.02007152        0.00115604
      51         -0.724611        2.000000        0.38425290        0.00966718        0.01017501        0.00981423        0.02286970        0.01725486        0.00120174        0.01496620        0.00101801
      52         -0.724611        2.000000        0.38425290        0.00999403        0.00974142        0.00992097        0.01612168        0.01891605        0.00106417        0.02005303        0.00115558
      53         -0.723818        2.000000        0.14143595        0.01003527        0.01003527        0.01003527        0.01658076        0.01658076        0.00035177        0.01658076        0.00035177
      54         -0.723405        2.000000        0.17234922        0.00720825        0.00772217        0.00736631        0.01520818        0.01602010        0.00034148        0.01638073        0.00029755
      55         -0.723405        2.000000        0.17234922        0.00788383        0.00684521        0.00756768        0.01720901        0.01556065        0.00027505        0.01483935        0.00036398
      56         -0.723405        2.000000        0.17234922        0.00720465        0.00772934        0.00736273        0.01519182        0.01602826        0.00034202        0.01638893        0.00029701
      57         -0.719430        2.000000        0.38806986        0.02374893        0.02270460        0.02343784        0.02756060        0.02796397        0.00229706        0.02813512        0.00266004
      58         -0.719430        2.000000        0.38806986        0.02240225        0.02446961        0.02301951        0.02853158        0.02773384        0.00283768        0.02739427        0.00211942
      59         -0.719430        2.000000        0.38806986        0.02374019        0.02271716        0.02343402        0.02756751        0.02796187        0.00230091        0.02813030        0.00265619
      60         -0.719404        2.000000        0.37703751        0.02028831        0.02028831        0.02028831        0.02303836        0.02303836        0.00339549        0.02303836        0.00339549
      61         -0.719106        2.000000        0.51771382        0.02405052        0.02405052        0.02405052        0.02596920        0.02596920        0.00338643        0.02596920        0.00338643
      62         -0.718934        2.000000        0.39281798        0.02041597        0.02227641        0.02099504        0.02697506        0.02535714        0.00317630        0.02462598        0.00253712
      63         -0.718934        2.000000        0.39281798        0.02284259        0.01914467        0.02170016        0.02302079        0.02624745        0.00222060        0.02768993        0.00349282
      64         -0.718934        2.000000        0.39281798        0.02042886        0.02226633        0.02099222        0.02696233        0.02535358        0.00317323        0.02464226        0.00254019
      65         -0.718477        2.000000        0.32504585        0.01218097        0.01218097        0.02071799        0.01417110        0.01897479        0.00311894        0.01417110        0.00440901
      66         -0.718477        2.000000        0.32504585        0.01787232        0.01787232        0.00933530        0.01737356        0.01256987        0.00440901        0.01737356        0.00311894
      67         -0.718392        2.000000        0.39403497        0.02055985        0.01604873        0.01903053        0.01806380        0.02022296        0.00325023        0.02133036        0.00320530
      68         -0.718392        2.000000        0.39403497        0.01471060        0.02314216        0.01778634        0.02320025        0.01932203        0.00318643        0.01709484        0.00326910
      69         -0.718392        2.000000        0.39403497        0.02036866        0.01644821        0.01882223        0.01835307        0.02007213        0.00324664        0.02119192        0.00320889
      70         -0.717897        2.000000        0.34863331        0.01292999        0.01292999        0.02165809        0.02403425        0.02287405        0.00152858        0.02403425        0.00199535
      71         -0.717897        2.000000        0.34863331        0.01874872        0.01874872        0.01002062        0.02326078        0.02442099        0.00199535        0.02326078        0.00152858
      72         -0.717826        2.000000        0.29283993        0.01829828        0.01419198        0.01787590        0.02626323        0.02657537        0.00094553        0.02661116        0.00127594
      73         -0.717826        2.000000        0.29283993        0.01406932        0.02083405        0.01546278        0.02682602        0.02637091        0.00136811        0.02625284        0.00085337
      74         -0.717826        2.000000        0.29283993        0.01799855        0.01534012        0.01702747        0.02636051        0.02650348        0.00101858        0.02658576        0.00120290
      75         -0.716414        2.000000        0.42696923        0.01270304        0.01270304        0.01270304        0.01880630        0.01880630        0.00286090        0.01880630        0.00286090
      76         -0.716213        2.000000        0.34112780        0.01202027        0.01280959        0.01225401        0.02541541        0.01998339        0.00204578        0.01769800        0.00175098
      77         -0.716213        2.000000        0.34112780        0.01304238        0.01146718        0.01257431        0.01229029        0.02311501        0.00160440        0.02769150        0.00219236
      78         -0.716213        2.000000        0.34112780        0.01202122        0.01280710        0.01225555        0.02539109        0.01999840        0.00204496        0.01770730        0.00175180
      79         -0.716137        2.000000        0.34547805        0.01271225        0.01271225        0.01395935        0.01704600        0.02917306        0.00156155        0.01704600        0.00179386
      80         -0.716137        2.000000        0.34547805        0.01354365        0.01354365        0.01229655        0.02513070        0.01300365        0.00179386        0.02513070        0.00156155
      81         -0.710211        2.000000        0.34446396        0.02592611        0.02879420        0.02681782        0.03961015        0.03653774        0.00319594        0.03515153        0.00247408
      82         -0.710211        2.000000        0.34446396        0.02967656        0.02393495        0.02792663        0.03205616        0.03826145        0.00210984        0.04098181        0.00356017
      83         -0.710211        2.000000        0.34446396        0.02593547        0.02880898        0.02679369        0.03963312        0.03650023        0.00319924        0.03516608        0.00247077
      84         -0.709558        2.000000        0.41976430        0.02146479        0.02146479        0.02146479        0.02671116        0.02671116        0.00429536        0.02671116        0.00429536
      85         -0.709547        2.000000        0.46755029        0.02480539        0.02480539        0.02514844        0.03247345        0.03090823        0.00455990        0.03247345        0.00402250
      86         -0.709547        2.000000        0.46755029        0.02503409        0.02503409        0.02469104        0.03142997        0.03299519        0.00402250        0.03142997        0.00455990
      87         -0.709524        2.000000        0.39956918        0.02787286        0.02865123        0.02830116        0.03405891        0.03435137        0.00317898        0.03470920        0.00300575
      88         -0.709524        2.000000        0.39956918        0.02912219        0.02735469        0.02834838        0.03514210        0.03431193        0.00288043        0.03366546        0.00330430
      89         -0.709524        2.000000        0.39956918        0.02783020        0.02881934        0.02817572        0.03391847        0.03445618        0.00321769        0.03474483        0.00296704
      90         -0.708138        2.000000        0.40192652        0.01595390        0.02061410        0.01742921        0.02410490        0.02303514        0.00414762        0.02253960        0.00341990
      91         -0.708138        2.000000        0.40192652        0.02215326        0.01264412        0.01919983        0.02142788        0.02362987        0.00303866        0.02462189        0.00452886
      92         -0.708138        2.000000        0.40192652        0.01589005        0.02073899        0.01736817        0.02414685        0.02301463        0.00416500        0.02251815        0.00340252
      93         -0.708072        2.000000        0.39001960        0.01867434        0.01828162        0.01856289        0.02276602        0.02339859        0.00397526        0.02364923        0.00463515
      94         -0.708072        2.000000        0.39001960        0.01817066        0.01895520        0.01839300        0.02428088        0.02301650        0.00496449        0.02251645        0.00364592
      95         -0.708072        2.000000        0.39001960        0.01867386        0.01828203        0.01856296        0.02276694        0.02339874        0.00397587        0.02364815        0.00463455
      96         -0.707754        2.000000        0.33853051        0.01808802        0.01602350        0.01746143        0.02375126        0.02566643        0.00310227        0.02650097        0.00376932
      97         -0.707754        2.000000        0.33853051        0.01544205        0.01943442        0.01669648        0.02829423        0.02464760        0.00407669        0.02297684        0.00279489
      98         -0.707754        2.000000        0.33853051        0.01804288        0.01611503        0.01741504        0.02387318        0.02560464        0.00312842        0.02644085        0.00374317
      99         -0.706943        2.000000        0.33338245        0.01202949        0.01492623        0.01293483        0.01579643        0.01575743        0.00550302        0.01573970        0.00515677
     100         -0.706943        2.000000        0.33338245        0.01585429        0.00992458        0.01411166        0.01569847        0.01578048        0.00497159        0.01581461        0.00568821
     101         -0.706943        2.000000        0.33338245        0.01200676        0.01503973        0.01284405        0.01579866        0.01575565        0.00551508        0.01573925        0.00514471
     102         -0.706571        2.000000        0.40850139        0.01694818        0.01551928        0.01637678        0.01981144        0.02117888        0.00481431        0.02209009        0.00554398
     103         -0.706571        2.000000        0.40850139        0.01467360        0.01840652        0.01576412        0.02441568        0.02020188        0.00619643        0.01846285        0.00416185
     104         -0.706571        2.000000        0.40850139        0.01722246        0.01491844        0.01670334        0.01885329        0.02169965        0.00452669        0.02252748        0.00583160
     105         -0.701313        2.000000        0.27860045        0.03695205        0.03695205        0.03281139        0.05082474        0.04299605        0.00436388        0.05082474        0.00336967
     106         -0.701313        2.000000        0.27860045        0.03419161        0.03419161        0.03833227        0.04560561        0.05343430        0.00336967        0.04560561        0.00436388
     107         -0.696832        2.000000        0.40836939        0.01553873        0.01799383        0.01629822        0.02335020        0.02038332        0.00969117        0.01905440        0.00633355
     108         -0.696832        2.000000        0.40836939        0.01877213        0.01380963        0.01724902        0.01602893        0.02204697        0.00461411        0.02471201        0.01141062
     109         -0.696832        2.000000        0.40836939        0.01551993        0.01802732        0.01628354        0.02340878        0.02035763        0.00973180        0.01902150        0.00629292
     110         -0.696611        2.000000        0.50475202        0.02480202        0.02543371        0.02499787        0.03099876        0.02833121        0.00633642        0.02713251        0.00631666
     111         -0.696611        2.000000        0.50475202        0.02563377        0.02435758        0.02524224        0.02441231        0.02982690        0.00630654        0.03222327        0.00634654
     112         -0.696611        2.000000        0.50475202        0.02479780        0.02544231        0.02499349        0.03105142        0.02830437        0.00633666        0.02710669        0.00631642
     113         -0.696490        2.000000        0.32612021        0.01774632        0.01774632        0.01365732        0.02053734        0.01939309        0.00537197        0.02053734        0.00591852
     114         -0.696490        2.000000        0.32612021        0.01502032        0.01502032        0.01910932        0.01977451        0.02091876        0.00591852        0.01977451        0.00537197
     115         -0.695320        2.000000        0.56996925        0.01963146        0.01963146        0.01963146        0.02593077        0.02593077        0.00520958        0.02593077        0.00520958
     116         -0.695174        2.000000        0.45605442        0.01737073        0.01586820        0.01682364        0.01895418        0.01786865        0.00644908        0.01724707        0.00805175
     117         -0.695174        2.000000        0.45605442        0.01536537        0.01829889        0.01639831        0.01619254        0.01835189        0.00882639        0.01952547        0.00567443
     118         -0.695174        2.000000        0.45605442        0.01732647        0.01589548        0.01684062        0.01892318        0.01784936        0.00647576        0.01729736        0.00802506
     119         -0.694916        2.000000        0.39821572        0.01098154        0.01098154        0.01098154        0.01397678        0.01397678        0.00602677        0.01397678        0.00602677
     120         -0.694274        2.000000        0.40293248        0.01065801        0.01065801        0.01065801        0.01227794        0.01227794        0.00897797        0.01227794        0.00897797
     121         -0.694167        2.000000        0.37636070        0.00691978        0.00691978        0.01550320        0.01031225        0.01419021        0.00786164        0.01031225        0.01245873
     122         -0.694167        2.000000        0.37636070        0.01264206        0.01264206        0.00405865        0.01289755        0.00901960        0.01245873        0.01289755        0.00786164
     123         -0.694004        2.000000        0.39683339        0.01426844        0.01032776        0.01366293        0.00939339        0.01033316        0.00765460        0.01050377        0.00898813
     124         -0.694004        2.000000        0.39683339        0.01026798        0.01726141        0.01072974        0.01134712        0.00950666        0.00956081        0.00937654        0.00708192
     125         -0.694004        2.000000        0.39683339        0.01372271        0.01066996        0.01386646        0.00948981        0.01039051        0.00774868        0.01035000        0.00889405
     126         -0.678929        2.000000        0.54833422        0.02153839        0.01702358        0.02014801        0.02080760        0.02292058        0.00382015        0.02386085        0.00520071
     127         -0.678929        2.000000        0.54833422        0.01567524        0.02457767        0.01845707        0.02591624        0.02177704        0.00586790        0.01989575        0.00315295
     128         -0.678929        2.000000        0.54833422        0.02149635        0.01710873        0.02010489        0.02086519        0.02289142        0.00384323        0.02383243        0.00517762
     129         -0.678447        2.000000        0.56224646        0.02973257        0.01563510        0.02951200        0.01636225        0.02684849        0.00784321        0.02701517        0.01117139
     130         -0.678447        2.000000        0.56224646        0.01608061        0.03702380        0.02177527        0.03252487        0.02100214        0.01166021        0.01669890        0.00735439
     131         -0.678447        2.000000        0.56224646        0.02906649        0.02222077        0.02359241        0.02133879        0.02237528        0.00901848        0.02651184        0.00999612
     132         -0.678178        2.000000        0.52114803        0.01723693        0.01772557        0.01738971        0.01947496        0.01957319        0.00596339        0.01961787        0.00542156
     133         -0.678178        2.000000        0.52114803        0.01787346        0.01690870        0.01757004        0.01971387        0.01952044        0.00515817        0.01943170        0.00622678
     134         -0.678178        2.000000        0.52114803        0.01724181        0.01771794        0.01739245        0.01947719        0.01957239        0.00595587        0.01961644        0.00542908
     135         -0.676935        2.000000        0.45093875        0.01417054        0.01743283        0.01517565        0.01524811        0.01477805        0.01029982        0.01456874        0.00722489
     136         -0.676935        2.000000        0.45093875        0.01842555        0.01193594        0.01641753        0.01410339        0.01503667        0.00570630        0.01545484        0.01181842
     137         -0.676935        2.000000        0.45093875        0.01418293        0.01741025        0.01518584        0.01524341        0.01478018        0.01028095        0.01457132        0.00724377
     138         -0.676104        2.000000        0.35128911        0.00745455        0.01267733        0.00913834        0.00802091        0.00700244        0.01395815        0.00651787        0.00895546
     139         -0.676104        2.000000        0.35128911        0.01443431        0.00371522        0.01112069        0.00544175        0.00757293        0.00628254        0.00852654        0.01663107
     140         -0.676104        2.000000        0.35128911        0.00738137        0.01287767        0.00901119        0.00807856        0.00696585        0.01412972        0.00649681        0.00878389
     141         -0.659734        2.000000        0.48996470        0.02983938        0.02983938        0.02983938        0.02515374        0.02515374        0.00374189        0.02515374        0.00374189
     142         -0.658811        2.000000        0.52701569        0.03998855        0.03998855        0.03998855        0.03062298        0.03062298        0.00238190        0.03062298        0.00238190
     143         -0.657384        2.000000        0.46245786        0.03218096        0.02834133        0.03102976        0.02570969        0.02777711        0.00467072        0.02866239        0.00586846
     144         -0.657384        2.000000        0.46245786        0.02717423        0.03489555        0.02948227        0.03074993        0.02658708        0.00647453        0.02481218        0.00406465