# Projected DOS for atomic kind H at iteration step i = 0, E(Fermi) =    -0.435913 a.u.
#     MO Eigenvalue [a.u.]      Occupation                 s
       1         -0.751701        2.000000        0.01127739
       2         -0.749353        2.000000        0.01869555
       3         -0.749353        2.000000        0.01869555
       4         -0.749353        2.000000        0.01869555
       5         -0.746285        2.000000        0.02647998
       6         -0.746285        2.000000        0.02647998
       7         -0.745412        2.000000        0.02795198
       8         -0.745412        2.000000        0.02795198
       9         -0.745412        2.000000        0.02795198
      10         -0.744593        2.000000        0.02629644
      11         -0.741467        2.000000        0.03595295
      12         -0.741467        2.000000        0.03595295
      13         -0.741467        2.000000        0.03595295
      14         -0.741084        2.000000        0.03730272
      15         -0.741084        2.000000        0.03730272
      16         -0.741084        2.000000        0.03730272
      17         -0.739806        2.000000        0.03462987
      18         -0.738690        2.000000        0.03466500
      19         -0.738690        2.000000        0.03466500
      20         -0.738690        2.000000        0.03466500
      21         -0.735676        2.000000        0.04584125
      22         -0.735676        2.000000        0.04584125
      23         -0.735100        2.000000        0.04582077
      24         -0.734993        2.000000        0.04591491
      25         -0.734993        2.000000        0.04591491
      26         -0.734993        2.000000        0.04591491
      27         -0.734441        2.000000        0.04471414
      28         -0.734441        2.000000        0.04471414
      29         -0.734441        2.000000        0.04471414
      30         -0.733451        2.000000        0.04498920
      31         -0.733451        2.000000        0.04498920
      32         -0.731204        2.000000        0.03509808
      33         -0.731204        2.000000        0.03509808
      34         -0.731204        2.000000        0.03509808
      35         -0.730661        2.000000        0.03401790
      36         -0.727979        2.000000        0.05378619
      37         -0.727979        2.000000        0.05378619
      38         -0.727979        2.000000        0.05378619
      39         -0.727775        2.000000        0.05479346
      40         -0.727775        2.000000        0.05479346
      41         -0.727775        2.000000        0.05479346
      42         -0.727107        2.000000        0.05349942
      43         -0.727107        2.000000        0.05349942
      44         -0.727107        2.000000        0.05349942
      45         -0.727012        2.000000        0.04669150
      46         -0.727012        2.000000        0.04669150
      47         -0.725730        2.000000        0.04471984
      48         -0.725730        2.000000        0.04471984
      49         -0.725730        2.000000        0.04471984
      50         -0.724611        2.000000        0.04757080
      51         -0.724611        2.000000        0.04757080
      52         -0.724611        2.000000        0.04757080
      53         -0.723818        2.000000        0.02007685
      54         -0.723405        2.000000        0.02355337
      55         -0.723405        2.000000        0.02355337
      56         -0.723405        2.000000        0.02355337
      57         -0.719430        2.000000        0.05077805
      58         -0.719430        2.000000        0.05077805
      59         -0.719430        2.000000        0.05077805
      60         -0.719404        2.000000        0.06030910
      61         -0.719106        2.000000        0.06518870
      62         -0.718934        2.000000        0.05050422
      63         -0.718934        2.000000        0.05050422
      64         -0.718934        2.000000        0.05050422
      65         -0.718477        2.000000        0.05598396
      66         -0.718477        2.000000        0.05598396
      67         -0.718392        2.000000        0.05256703
      68         -0.718392        2.000000        0.05256703
      69         -0.718392        2.000000        0.05256703
      70         -0.717897        2.000000        0.04763683
      71         -0.717897        2.000000        0.04763683
      72         -0.717826        2.000000        0.04109646
      73         -0.717826        2.000000        0.04109646
      74         -0.717826        2.000000        0.04109646
      75         -0.716414        2.000000        0.06045414
      76         -0.716213        2.000000        0.04932243
      77         -0.716213        2.000000        0.04932243
      78         -0.716213        2.000000        0.04932243
      79         -0.716137        2.000000        0.04835997
      80         -0.716137        2.000000        0.04835997
      81         -0.710211        2.000000        0.05334284
      82         -0.710211        2.000000        0.05334284
      83         -0.710211        2.000000        0.05334284
      84         -0.709558        2.000000        0.06020960
      85         -0.709547        2.000000        0.06712351
      86         -0.709547        2.000000        0.06712351
      87         -0.709524        2.000000        0.05940848
      88         -0.709524        2.000000        0.05940848
      89         -0.709524        2.000000        0.05940848
      90         -0.708138        2.000000        0.06587814
      91         -0.708138        2.000000        0.06587814
      92         -0.708138        2.000000        0.06587814
      93         -0.708072        2.000000        0.06409099
      94         -0.708072        2.000000        0.06409099
      95         -0.708072        2.000000        0.06409099
      96         -0.707754        2.000000        0.05990207
      97         -0.707754        2.000000        0.05990207
      98         -0.707754        2.000000        0.05990207
      99         -0.706943        2.000000        0.05933925
     100         -0.706943        2.000000        0.05933925
     101         -0.706943        2.000000        0.05933925
     102         -0.706571        2.000000        0.06423074
     103         -0.706571        2.000000        0.06423074
     104         -0.706571        2.000000        0.06423074
     105         -0.701313        2.000000        0.04678190
     106         -0.701313        2.000000        0.04678190
     107         -0.696832        2.000000        0.07234575
     108         -0.696832        2.000000        0.07234575
     109         -0.696832        2.000000        0.07234575
     110         -0.696611        2.000000        0.09036111
     111         -0.696611        2.000000        0.09036111
     112         -0.696611        2.000000        0.09036111
     113         -0.696490        2.000000        0.05934772
     114         -0.696490        2.000000        0.05934772
     115         -0.695320        2.000000        0.10152559
     116         -0.695174        2.000000        0.09376012
     117         -0.695174        2.000000        0.09376012
     118         -0.695174        2.000000        0.09376012
     119         -0.694916        2.000000        0.07454575
     120         -0.694274        2.000000        0.08672248
     121         -0.694167        2.000000        0.08259020
     122         -0.694167        2.000000        0.08259020
     123         -0.694004        2.000000        0.08436001
     124         -0.694004        2.000000        0.08436001
     125         -0.694004        2.000000        0.08436001
     126         -0.678929        2.000000        0.14808865
     127         -0.678929        2.000000        0.14808865
     128         -0.678929        2.000000        0.14808865
     129         -0.678447        2.000000        0.14469111
     130         -0.678447        2.000000        0.14469111
     131         -0.678447        2.000000        0.14469111
     132         -0.678178        2.000000        0.13241524
     133         -0.678178        2.000000        0.13241524
     134         -0.678178        2.000000        0.13241524
     135         -0.676935        2.000000        0.10934963
     136         -0.676935        2.000000        0.10934963
     137         -0.676935        2.000000        0.10934963
     138         -0.676104        2.000000        0.09626465
     139         -0.676104        2.000000        0.09626465
     140         -0.676104        2.000000        0.09626465
     141         -0.659734        2.000000        0.14782160
     142         -0.658811        2.000000        0.15521887
     143         -0.657384        2.000000        0.14902430
     144         -0.657384        2.000000        0.14902430
     145         -0.657384        2.000000        0.14902430
     146         -0.656688        2.000000        0.14080962
     147         -0.656688        2.000000        0.14080962
     148         -0.656688        2.000000        0.14080962
     149         -0.656072        2.000000        0.12796340
     150         -0.656072        2.000000        0.12796340
     151         -0.654998        2.000000        0.14429070
     152         -0.654998        2.000000        0.14429070
     153         -0.654998        2.000000        0.14429070
     154         -0.652692        2.000000        0.13339137
     155         -0.652692        2.000000        0.13339137
     156         -0.652692        2.000000        0.13339137
     157         -0.651535        2.000000        0.08856645
     158         -0.649589        2.000000        0.09653013
     159         -0.649589        2.000000        0.09653013
     160         -0.641257        2.000000        0.11533991
     161         -0.641257        2.000000        0.11533991
     162         -0.640811        2.000000        0.16231714
     163         -0.640811        2.000000        0.16231714
     164         -0.640811        2.000000        0.16231714
     165         -0.637985        2.000000        0.16816840
     166         -0.637985        2.000000        0.16816840
     167         -0.637985        2.000000        0.16816840
     168         -0.636883        2.000000        0.13081034
     169         -0.636883        2.000000        0.13081034
     170         -0.636883        2.000000        0.13081034
     171         -0.636595        2.000000        0.15790193
     172         -0.636595        2.000000        0.15790193
     173         -0.636595        2.000000        0.15790193
     174         -0.636324        2.000000        0.13769750
     175         -0.636324        2.000000        0.13769750
     176         -0.636324        2.000000        0.13769750
     177         -0.635260        2.000000        0.15950853
     178         -0.635260        2.000000        0.15950853
     179         -0.634868        2.000000        0.16242613
     180         -0.631220        2.000000        0.11395172
     181         -0.631220        2.000000        0.11395172
     182         -0.631220        2.000000        0.11395172
     183         -0.628652        2.000000        0.11170195
     184         -0.628652        2.000000        0.11170195
     185         -0.628652        2.000000        0.11170195
     186         -0.626067        2.000000        0.17654361
     187         -0.625346        2.000000        0.15550248
     188         -0.625346        2.000000        0.15550248
     189         -0.625346        2.000000        0.15550248
     190         -0.625204        2.000000        0.15371894
     191         -0.625204        2.000000        0.15371894
     192         -0.621617        2.000000        0.14213661
     193         -0.621617        2.000000        0.14213661
     194         -0.621079        2.000000        0.15849028
     195         -0.621079        2.000000        0.15849028
     196         -0.621079        2.000000        0.15849028
     197         -0.620032        2.000000        0.18261652
     198         -0.620023        2.000000        0.13530763
     199         -0.620023        2.000000        0.13530763
     200         -0.620023        2.000000        0.13530763
     201         -0.618332        2.000000        0.13588295
     202         -0.618332        2.000000        0.13588295
     203         -0.618332        2.000000        0.13588295
     204         -0.616953        2.000000        0.14904290
     205         -0.616953        2.000000        0.14904290
     206         -0.616446        2.000000        0.11777681
     207         -0.616446        2.000000        0.11777681
     208         -0.616446        2.000000        0.11777681
     209         -0.615551        2.000000        0.13557722
     210         -0.613912        2.000000        0.12890129
     211         -0.613912        2.000000        0.12890129
     212         -0.613912        2.000000        0.12890129
     213         -0.612509        2.000000        0.17957727
     214         -0.612509        2.000000        0.17957727
     215         -0.612509        2.000000        0.17957727
     216         -0.611198        2.000000        0.11941644
     217         -0.608701        2.000000        0.16807433
     218         -0.608701        2.000000        0.16807433
     219         -0.608701        2.000000        0.16807433
     220         -0.606085        2.000000        0.17917101
     221         -0.606085        2.000000        0.17917101
     222         -0.606085        2.000000        0.17917101
     223         -0.604713        2.000000        0.17681681
     224         -0.604713        2.000000        0.17681681
     225         -0.603913        2.000000        0.18922141
     226         -0.603913        2.000000        0.18922141
     227         -0.603913        2.000000        0.18922141
     228         -0.602989        2.000000        0.21492067
     229         -0.601458        2.000000        0.19102631
     230         -0.601458        2.000000        0.19102631
     231         -0.601458        2.000000        0.19102631
     232         -0.600050        2.000000        0.21427197
     233         -0.600050        2.000000        0.21427197
     234         -0.600050        2.000000        0.21427197
     235         -0.592322        2.000000        0.18607074
     236         -0.592322        2.000000        0.18607074
     237         -0.588702        2.000000        0.18894404
     238         -0.588702        2.000000        0.18894404
     239         -0.588702        2.000000        0.18894404
     240         -0.587983        2.000000        0.20431926
     241         -0.587983        2.000000        0.20431926
     242         -0.587983        2.000000        0.20431926
     243         -0.587071        2.000000        0.21944484
     244         -0.583498        2.000000        0.21859235
     245         -0.583498        2.000000        0.21859235
     246         -0.581220        2.000000        0.20908663
     247         -0.581220        2.000000        0.20908663
     248         -0.581220        2.000000        0.20908663
     249         -0.575838        2.000000        0.21901828
     250         -0.567176        2.000000        0.17686174
     251         -0.567176        2.000000        0.17686174
     252         -0.567176        2.000000        0.17686174
     253         -0.565860        2.000000        0.20668833
     254         -0.565860        2.000000        0.20668833
     255         -0.565860        2.000000        0.20668833
     256         -0.554036        2.000000        0.17086805
     257         -0.551679        2.000000        0.18086126
     258         -0.551679        2.000000        0.18086126
     259         -0.551679        2.000000        0.18086126
     260         -0.544396        2.000000        0.19856335
     261         -0.544396        2.000000        0.19856335
     262         -0.535064        2.000000        0.49380854
     263         -0.535064        2.000000        0.49380854
     264         -0.535064        2.000000        0.49380854
     265         -0.535049        2.000000        0.49472810
     266         -0.535049        2.000000        0.49472810
     267         -0.535049        2.000000        0.49472810
     268         -0.533204        2.000000        0.33067923
     269         -0.533009        2.000000        0.32967227
     270         -0.533009        2.000000        0.32967227
     271         -0.533009        2.000000        0.32967227
     272         -0.532348        2.000000        0.38271047
     273         -0.532348        2.000000        0.38271047
     274         -0.532342        2.000000        0.50365219
     275         -0.532328        2.000000        0.50703658
     276         -0.532328        2.000000        0.50703658
     277         -0.532328        2.000000        0.50703658
     278         -0.532313        2.000000        0.46363257
     279         -0.532313        2.000000        0.46363257
     280         -0.532206        2.000000        0.33804147
     281         -0.532206        2.000000        0.33804147
     282         -0.532206        2.000000        0.33804147
     283         -0.532027        2.000000        0.34756180
     284         -0.532027        2.000000        0.34756180
     285         -0.532027        2.000000        0.34756180
     286         -0.531969        2.000000        0.34414886
     287         -0.531969        2.000000        0.34414886
     288         -0.531969        2.000000        0.34414886
     289         -0.531748        2.000000        0.34143983
     290         -0.531748        2.000000        0.34143983
     291         -0.531748        2.000000        0.34143983
     292         -0.531672        2.000000        0.34822114
     293         -0.531672        2.000000        0.34822114
     294         -0.529785        2.000000        0.25228656
     295         -0.529035        2.000000        0.27481668
     296         -0.529035        2.000000        0.27481668
     297         -0.529035        2.000000        0.27481668
     298         -0.528635        2.000000        0.27037917
     299         -0.528635        2.000000        0.27037917
     300         -0.528635        2.000000        0.27037917
     301         -0.528621        2.000000        0.27391904
     302         -0.528095        2.000000        0.26986775
     303         -0.528095        2.000000        0.26986775
     304         -0.527765        2.000000        0.27366718
     305         -0.527765        2.000000        0.27366718
     306         -0.527765        2.000000        0.27366718
     307         -0.527651        2.000000        0.29510570
     308         -0.527651        2.000000        0.29510570
     309         -0.527651        2.000000        0.29510570
     310         -0.526872        2.000000        0.32635394
     311         -0.526872        2.000000        0.32635394
     312         -0.526872        2.000000        0.32635394
     313         -0.526788        2.000000        0.22261542
     314         -0.526788        2.000000        0.22261542
     315         -0.526788        2.000000        0.22261542
     316         -0.526496        2.000000        0.34698758
     317         -0.524988        2.000000        0.34991780
     318         -0.524829        2.000000        0.30297848
     319         -0.524829        2.000000        0.30297848
     320         -0.524829        2.000000        0.30297848
     321         -0.521760        2.000000        0.20430992
     322         -0.521760        2.000000        0.20430992
     323         -0.521524        2.000000        0.28917558
     324         -0.521524        2.000000        0.28917558
     325         -0.521524        2.000000        0.28917558
     326         -0.521212        2.000000        0.27436884
     327         -0.521212        2.000000        0.27436884
     328         -0.521212        2.000000        0.27436884
     329         -0.520044        2.000000        0.24937677
     330         -0.520030        2.000000        0.23519682
     331         -0.520030        2.000000        0.23519682
     332         -0.520030        2.000000        0.23519682
     333         -0.519812        2.000000        0.22734524
     334         -0.519519        2.000000        0.30631209
     335         -0.519519        2.000000        0.30631209
     336         -0.518661        2.000000        0.26335974
     337         -0.518661        2.000000        0.26335974
     338         -0.518661        2.000000        0.26335974
     339         -0.518576        2.000000        0.23141654
     340         -0.518576        2.000000        0.23141654
     341         -0.518576        2.000000        0.23141654
     342         -0.517703        2.000000        0.27514443
     343         -0.517703        2.000000        0.27514443
     344         -0.517703        2.000000        0.27514443
     345         -0.516373        2.000000        0.26513356
     346         -0.516373        2.000000        0.26513356
     347         -0.516373        2.000000        0.26513356
     348         -0.515028        2.000000        0.28177090
     349         -0.515028        2.000000        0.28177090
     350         -0.513045        2.000000        0.23814090
     351         -0.513045        2.000000        0.23814090
     352         -0.513045        2.000000        0.23814090
     353         -0.510797        2.000000        0.12236889
     354         -0.510797        2.000000        0.12236889
     355         -0.510797        2.000000        0.12236889
     356         -0.509914        2.000000        0.25123237
     357         -0.509914        2.000000        0.25123237
     358         -0.509914        2.000000        0.25123237
     359         -0.509273        2.000000        0.05480424
     360         -0.509273        2.000000        0.05480424
     361         -0.509099        2.000000        0.13087731
     362         -0.509099        2.000000        0.13087731
     363         -0.509099        2.000000        0.13087731
     364         -0.507653        2.000000        0.17948078
     365         -0.507009        2.000000        0.05839037
     366         -0.507009        2.000000        0.05839037
     367         -0.507009        2.000000        0.05839037
     368         -0.506926        2.000000        0.13748009
     369         -0.506926        2.000000        0.13748009
     370         -0.506926        2.000000        0.13748009
     371         -0.504691        2.000000        0.09576451
     372         -0.504691        2.000000        0.09576451
     373         -0.504691        2.000000        0.09576451
     374         -0.504193        2.000000        0.13391526
     375         -0.504193        2.000000        0.13391526
     376         -0.503694        2.000000        0.09000902
     377         -0.503466        2.000000        0.22800950
     378         -0.503003        2.000000        0.18049897
     379         -0.503003        2.000000        0.18049897
     380         -0.503003        2.000000        0.18049897
     381         -0.501484        2.000000        0.12595594
     382         -0.499185        2.000000        0.04689538
     383         -0.499185        2.000000        0.04689538
     384         -0.499185        2.000000        0.04689538
     385         -0.498849        2.000000        0.06416830
     386         -0.498795        2.000000        0.04957117
     387         -0.498795        2.000000        0.04957117
     388         -0.498700        2.000000        0.05125213
     389         -0.498700        2.000000        0.05125213
     390         -0.498700        2.000000        0.05125213
     391         -0.497983        2.000000        0.06740165
     392         -0.497983        2.000000        0.06740165
     393         -0.497983        2.000000        0.06740165
     394         -0.497785        2.000000        0.15851405
     395         -0.497785        2.000000        0.15851405
     396         -0.497785        2.000000        0.15851405
     397         -0.496883        2.000000        0.10507015
     398         -0.496883        2.000000        0.10507015
     399         -0.496883        2.000000        0.10507015
     400         -0.496320        2.000000        0.09772270
     401         -0.496320        2.000000        0.09772270
     402         -0.495934        2.000000        0.02806694
     403         -0.495272        2.000000        0.02835272
     404         -0.495272        2.000000        0.02835272
     405         -0.495272        2.000000        0.02835272
     406         -0.493466        2.000000        0.02427189
     407         -0.493466        2.000000        0.02427189
     408         -0.493466        2.000000        0.02427189
     409         -0.493307        2.000000        0.05470500
     410         -0.493307        2.000000        0.05470500
     411         -0.493307        2.000000        0.05470500
     412         -0.492895        2.000000        0.05077246
     413         -0.492895        2.000000        0.05077246
     414         -0.491597        2.000000        0.03083281
     415         -0.491597        2.000000        0.03083281
     416         -0.491597        2.000000        0.03083281
     417         -0.490889        2.000000        0.11775640
     418         -0.490889        2.000000        0.11775640
     419         -0.490889        2.000000        0.11775640
     420         -0.490061        2.000000        0.03520584
     421         -0.490061        2.000000        0.03520584
     422         -0.488873        2.000000        0.04874380
     423         -0.488506        2.000000        0.02618177
     424         -0.488506        2.000000        0.02618177
     425         -0.488506        2.000000        0.02618177
     426         -0.488176        2.000000        0.01780308
     427         -0.488176        2.000000        0.01780308
     428         -0.488176        2.000000        0.01780308
     429         -0.486446        2.000000        0.04907526
     430         -0.486446        2.000000        0.04907526
     431         -0.486446        2.000000        0.04907526
     432         -0.486061        2.000000        0.02309289
     433         -0.486061        2.000000        0.02309289
     434         -0.486061        2.000000        0.02309289
     435         -0.485689        2.000000        0.02495023
     436         -0.485689        2.000000        0.02495023
     437         -0.485689        2.000000        0.02495023
     438         -0.485240        2.000000        0.02344112
     439         -0.485109        2.000000        0.00952212
     440         -0.485109        2.000000        0.00952212
     441         -0.484469        2.000000        0.03497294
     442         -0.484469        2.000000        0.03497294
     443         -0.484469        2.000000        0.03497294
     444         -0.484056        2.000000        0.04114528
     445         -0.484056        2.000000        0.04114528
     446         -0.484056        2.000000        0.04114528
     447         -0.483962        2.000000        0.03806505
     448         -0.483962        2.000000        0.03806505
     449         -0.483962        2.000000        0.03806505
     450         -0.483408        2.000000        0.08583290
     451         -0.483408        2.000000        0.08583290
     452         -0.483408        2.000000        0.08583290
     453         -0.481243        2.000000        0.06862696
     454         -0.481243        2.000000        0.06862696
     455         -0.481243        2.000000        0.06862696
     456         -0.480269        2.000000        0.01857676
     457         -0.479821        2.000000        0.01038548
     458         -0.479821        2.000000        0.01038548
     459         -0.479821        2.000000        0.01038548
     460         -0.478983        2.000000        0.00922267
     461         -0.478983        2.000000        0.00922267
     462         -0.478983        2.000000        0.00922267
     463         -0.478982        2.000000        0.07950169
     464         -0.478976        2.000000        0.04502017
     465         -0.478976        2.000000        0.04502017
     466         -0.478799        2.000000        0.02752645
     467         -0.478799        2.000000        0.02752645
     468         -0.478799        2.000000        0.02752645
     469         -0.478209        2.000000        0.01657183
     470         -0.478162        2.000000        0.01925741
     471         -0.478162        2.000000        0.01925741
     472         -0.477025        2.000000        0.02942764
     473         -0.477025        2.000000        0.02942764
     474         -0.477025        2.000000        0.02942764
     475         -0.476656        2.000000        0.02214682
     476         -0.476656        2.000000        0.02214682
     477         -0.476656        2.000000        0.02214682
     478         -0.476424        2.000000        0.06046315
     479         -0.476424        2.000000        0.06046315
     480         -0.475871        2.000000        0.00571057
     481         -0.474437        2.000000        0.03936104
     482         -0.474437        2.000000        0.03936104
     483         -0.474437        2.000000        0.03936104
     484         -0.474410        2.000000        0.03020378
     485         -0.474410        2.000000        0.03020378
     486         -0.473302        2.000000        0.01327255
     487         -0.473302        2.000000        0.01327255
     488         -0.473302        2.000000        0.01327255
     489         -0.473259        2.000000        0.02030276