# Projected DOS for atomic kind Si at iteration step i = 0, E(Fermi) =    -0.435913 a.u.
#     MO Eigenvalue [a.u.]      Occupation                 s                py                pz                px               d-2               d-1                d0               d+1               d+2
       1         -0.751701        2.000000        0.96861829        0.00527636        0.00527636        0.00527636        0.00114645        0.00114645        0.00041795        0.00114645        0.00041795
       2         -0.749353        2.000000        0.93395795        0.00944809        0.01282788        0.01045157        0.00415611        0.00399574        0.00142115        0.00392802        0.00111793
       3         -0.749353        2.000000        0.93395795        0.01385651        0.00700805        0.01186299        0.00376335        0.00409100        0.00096128        0.00422553        0.00157780
       4         -0.749353        2.000000        0.93395795        0.00942295        0.01289161        0.01041298        0.00416041        0.00399314        0.00142619        0.00392633        0.00111289
       5         -0.746285        2.000000        0.89841777        0.01187112        0.01187112        0.02478216        0.00453489        0.01034872        0.00267233        0.00453489        0.00448702
       6         -0.746285        2.000000        0.89841777        0.02047848        0.02047848        0.00756745        0.00841077        0.00259695        0.00448702        0.00841077        0.00267233
       7         -0.745412        2.000000        0.87948537        0.01994628        0.01559249        0.01876501        0.01209164        0.01121414        0.00202162        0.01088741        0.00204407
       8         -0.745412        2.000000        0.87948537        0.01441883        0.02242238        0.01746256        0.01020253        0.01157439        0.00205218        0.01241626        0.00201351
       9         -0.745412        2.000000        0.87948537        0.01993866        0.01628891        0.01807620        0.01189901        0.01140466        0.00202474        0.01088951        0.00204096
      10         -0.744593        2.000000        0.86879272        0.01955538        0.01955538        0.01955538        0.01358806        0.01358806        0.00274026        0.01358806        0.00274026
      11         -0.741467        2.000000        0.84349953        0.01832632        0.02878417        0.02162278        0.01451413        0.01252055        0.00788365        0.01160288        0.00529303
      12         -0.741467        2.000000        0.84349953        0.03200173        0.01118268        0.02554886        0.00961424        0.01361349        0.00400164        0.01540983        0.00917504
      13         -0.741467        2.000000        0.84349953        0.01840522        0.02876642        0.02156163        0.01450919        0.01250353        0.00787973        0.01162485        0.00529695
      14         -0.741084        2.000000        0.83485164        0.02372609        0.02368672        0.02371458        0.01451785        0.01664202        0.00355641        0.01751915        0.00448283
      15         -0.741084        2.000000        0.83485164        0.02367535        0.02375362        0.02369842        0.01961738        0.01540985        0.00493901        0.01365178        0.00310023
      16         -0.741084        2.000000        0.83485164        0.02372594        0.02368706        0.02371439        0.01454378        0.01662715        0.00356344        0.01750808        0.00447580
      17         -0.739806        2.000000        0.80913590        0.02563382        0.02563382        0.02563382        0.02458086        0.02458086        0.00279509        0.02458086        0.00279509
      18         -0.738690        2.000000        0.78905386        0.02553175        0.02866333        0.02647510        0.02895946        0.03008042        0.00303631        0.03056367        0.00297110
      19         -0.738690        2.000000        0.78905386        0.02961906        0.02329357        0.02775755        0.03171022        0.02942346        0.00293757        0.02846987        0.00306983
      20         -0.738690        2.000000        0.78905386        0.02551937        0.02871328        0.02643752        0.02893387        0.03009967        0.00303723        0.03057001        0.00297018
      21         -0.735676        2.000000        0.78944342        0.02479008        0.02296200        0.03953311        0.01902083        0.01993295        0.00787116        0.01912145        0.01148376
      22         -0.735676        2.000000        0.78944342        0.03340005        0.03522812        0.01865701        0.01969599        0.01878388        0.01148376        0.01959537        0.00787116
      23         -0.735100        2.000000        0.78106576        0.02980950        0.02980950        0.02980950        0.02068598        0.02068598        0.01081351        0.02068598        0.01081351
      24         -0.734993        2.000000        0.77296529        0.03365147        0.02482598        0.03102415        0.02448855        0.02617412        0.00628165        0.02688860        0.00778528
      25         -0.734993        2.000000        0.77296529        0.02237825        0.03924143        0.02788191        0.02840877        0.02531960        0.00844579        0.02382290        0.00562113
      26         -0.734993        2.000000        0.77296529        0.03347188        0.02543419        0.03059554        0.02465395        0.02605756        0.00637295        0.02683977        0.00769397
      27         -0.734441        2.000000        0.76462728        0.03084042        0.03005232        0.03060771        0.03308662        0.02898530        0.00530731        0.02726683        0.00451205
      28         -0.734441        2.000000        0.76462728        0.02981413        0.03140735        0.03027898        0.02308032        0.03141287        0.00410418        0.03484557        0.00571518
      29         -0.734441        2.000000        0.76462728        0.03084590        0.03004079        0.03061377        0.03317182        0.02894058        0.00531755        0.02722636        0.00450181
      30         -0.733451        2.000000        0.74938887        0.03067594        0.03026141        0.03285922        0.02515362        0.04674018        0.00422818        0.02859823        0.00710515
      31         -0.733451        2.000000        0.74938887        0.03185511        0.03226964        0.02967182        0.04184106        0.02025450        0.00710515        0.03839646        0.00422818
      32         -0.731204        2.000000        0.70157085        0.03377355        0.03045559        0.03322418        0.05548605        0.05281063        0.00270635        0.05227975        0.00259496
      33         -0.731204        2.000000        0.70157085        0.02990884        0.03618474        0.03135976        0.04994971        0.05461231        0.00254908        0.05601440        0.00275224
      34         -0.731204        2.000000        0.70157085        0.03377094        0.03081300        0.03286939        0.05514067        0.05315348        0.00269654        0.05228227        0.00260477
      35         -0.730661        2.000000        0.69109188        0.03242920        0.03242920        0.03242920        0.05749542        0.05749542        0.00255819        0.05749542        0.00255819
      36         -0.727979        2.000000        0.72296620        0.02934614        0.04329813        0.03384040        0.03295162        0.03039691        0.01434208        0.02918292        0.00988941
      37         -0.727979        2.000000        0.72296620        0.04787851        0.01936972        0.03923644        0.02648810        0.03185448        0.00751508        0.03418887        0.01671641
      38         -0.727979        2.000000        0.72296620        0.02926002        0.04381682        0.03340783        0.03309173        0.03028006        0.01449007        0.02915966        0.00974142
      39         -0.727775        2.000000        0.71488998        0.03481752        0.03657375        0.03536711        0.03512678        0.03529986        0.00871495        0.03537870        0.00903788
      40         -0.727775        2.000000        0.71488998        0.03714122        0.03358585        0.03603131        0.03555537        0.03520459        0.00920343        0.03504538        0.00854940
      41         -0.727775        2.000000        0.71488998        0.03479965        0.03659878        0.03535996        0.03512319        0.03530089        0.00871086        0.03538126        0.00904197
      42         -0.727107        2.000000        0.70784499        0.03634148        0.03571642        0.03609334        0.03566064        0.03700851        0.00961290        0.03789584        0.01032646
      43         -0.727107        2.000000        0.70784499        0.03548144        0.03671934        0.03595046        0.03924712        0.03649756        0.01068425        0.03482031        0.00925511
      44         -0.727107        2.000000        0.70784499        0.03632833        0.03571547        0.03610744        0.03565724        0.03705892        0.00961189        0.03784884        0.01032747
      45         -0.727012        2.000000        0.69547643        0.02990878        0.02990878        0.04725585        0.04099693        0.05641696        0.00459528        0.04099693        0.00775255
      46         -0.727012        2.000000        0.69547643        0.04147349        0.04147349        0.02412643        0.05127695        0.03585693        0.00775255        0.05127695        0.00459528
      47         -0.725730        2.000000        0.67518636        0.03316566        0.03971528        0.03530443        0.05528007        0.05318684        0.00647889        0.05217185        0.00479077
      48         -0.725730        2.000000        0.67518636        0.04183020        0.02866728        0.03768790        0.05003709        0.05431795        0.00392649        0.05628373        0.00734318
      49         -0.725730        2.000000        0.67518636        0.03318952        0.03980281        0.03519305        0.05532161        0.05313398        0.00649911        0.05218318        0.00477055
      50         -0.724611        2.000000        0.66400391        0.03601542        0.03707676        0.03632314        0.05199598        0.05851784        0.00333391        0.06118088        0.00398135
      51         -0.724611        2.000000        0.66400391        0.03737954        0.03526776        0.03676802        0.06765119        0.05466782        0.00430189        0.04937569        0.00301338
      52         -0.724611        2.000000        0.66400391        0.03602036        0.03707080        0.03632416        0.05204754        0.05850904        0.00333710        0.06113813        0.00397817
      53         -0.723818        2.000000        0.62022427        0.03459664        0.03459664        0.03459664        0.08462765        0.08462765        0.00101301        0.08462765        0.00101301
      54         -0.723405        2.000000        0.61873625        0.03377905        0.03570793        0.03437229        0.08228979        0.08407559        0.00134266        0.08486878        0.00127429
      55         -0.723405        2.000000        0.61873625        0.03631466        0.03241650        0.03512810        0.08669056        0.08306505        0.00123926        0.08147856        0.00137769
      56         -0.723405        2.000000        0.61873625        0.03376555        0.03573483        0.03435888        0.08225382        0.08409353        0.00134350        0.08488683        0.00127345
      57         -0.719430        2.000000        0.64581169        0.04213127        0.03818438        0.04095554        0.05537205        0.05629331        0.00624082        0.05668418        0.00754869
      58         -0.719430        2.000000        0.64581169        0.03704171        0.04485495        0.03937454        0.05758966        0.05576771        0.00818876        0.05499217        0.00560075
      59         -0.719430        2.000000        0.64581169        0.04209822        0.03823186        0.04094112        0.05538783        0.05628852        0.00625469        0.05667319        0.00753483
      60         -0.719404        2.000000        0.66576953        0.04141510        0.04141510        0.04141510        0.03986375        0.03986375        0.01504241        0.03986375        0.01504241
      61         -0.719106        2.000000        0.65918179        0.04125293        0.04125293        0.04125293        0.04401060        0.04401060        0.00991945        0.04401060        0.00991945
      62         -0.718934        2.000000        0.63979411        0.03818376        0.04262632        0.03956652        0.05949776        0.05767314        0.00849101        0.05684858        0.00681459
      63         -0.718934        2.000000        0.63979411        0.04397829        0.03514803        0.04125028        0.05503832        0.05867720        0.00598444        0.06030396        0.00932115
      64         -0.718934        2.000000        0.63979411        0.03821455        0.04260225        0.03955980        0.05948340        0.05766913        0.00848294        0.05686694        0.00682266
      65         -0.718477        2.000000        0.65349379        0.02894848        0.02894848        0.06812888        0.03670362        0.05836708        0.01251749        0.03670362        0.02020461
      66         -0.718477        2.000000        0.65349379        0.05506875        0.05506875        0.01588834        0.05114592        0.02948246        0.02020461        0.05114592        0.01251749
      67         -0.718392        2.000000        0.63993459        0.04530047        0.03619720        0.04221436        0.04994541        0.05528896        0.00944504        0.05802959        0.01107735
      68         -0.718392        2.000000        0.63993459        0.03349690        0.05051148        0.03970364        0.06265725        0.05305931        0.01176296        0.04754740        0.00875943
      69         -0.718392        2.000000        0.63993459        0.04491466        0.03700334        0.04179403        0.05066130        0.05491569        0.00957558        0.05768697        0.01094681
      70         -0.717897        2.000000        0.62273270        0.03290684        0.03290684        0.05288428        0.06679326        0.06411241        0.00571519        0.06679326        0.00751841
      71         -0.717897        2.000000        0.62273270        0.04622513        0.04622513        0.02624769        0.06500602        0.06768687        0.00751841        0.06500602        0.00571519
      72         -0.717826        2.000000        0.61492641        0.04273723        0.03357085        0.04179437        0.07145692        0.07184110        0.00458057        0.07188515        0.00611094
      73         -0.717826        2.000000        0.61492641        0.03329706        0.04839776        0.03640763        0.07214960        0.07158945        0.00653779        0.07144413        0.00415372
      74         -0.717826        2.000000        0.61492641        0.04206816        0.03613383        0.03990045        0.07157666        0.07175262        0.00491890        0.07185389        0.00577261
      75         -0.716414        2.000000        0.62825559        0.04145420        0.04145420        0.04145420        0.05710862        0.05710862        0.00780089        0.05710862        0.00780089
      76         -0.716213        2.000000        0.61171066        0.04129284        0.03971629        0.04082597        0.08116738        0.06717727        0.00385602        0.06129128        0.00363984
      77         -0.716213        2.000000        0.61171066        0.03925132        0.04239755        0.04018623        0.04736380        0.07524273        0.00353235        0.08702941        0.00396352
      78         -0.716213        2.000000        0.61171066        0.04129094        0.03972126        0.04082290        0.08110476        0.06721593        0.00385543        0.06131525        0.00364044
      79         -0.716137        2.000000        0.60993054        0.04135963        0.04135963        0.03971923        0.05839713        0.09506516        0.00342108        0.05839713        0.00399051
      80         -0.716137        2.000000        0.60993054        0.04026603        0.04026603        0.04190642        0.08284249        0.04617445        0.00399051        0.08284248        0.00342108
      81         -0.710211        2.000000        0.59761500        0.04268315        0.04987694        0.04491974        0.06867906        0.06479509        0.00851920        0.06304271        0.00652627
      82         -0.710211        2.000000        0.59761500        0.05209007        0.03768889        0.04770088        0.05912970        0.06697411        0.00552069        0.07041305        0.00952478
      83         -0.710211        2.000000        0.59761500        0.04270661        0.04991401        0.04485921        0.06870810        0.06474766        0.00852832        0.06306109        0.00651715
      84         -0.709558        2.000000        0.59503836        0.04488630        0.04488630        0.04488630        0.06281420        0.06281420        0.01082527        0.06281420        0.01082527
      85         -0.709547        2.000000        0.59729475        0.04559814        0.04559814        0.04169496        0.06376395        0.05716008        0.00983652        0.06376395        0.00816598
      86         -0.709547        2.000000        0.59729475        0.04299602        0.04299602        0.04689920        0.05936137        0.06596525        0.00816598        0.05936137        0.00983652
      87         -0.709524        2.000000        0.59845476        0.04546770        0.04839554        0.04707876        0.05990830        0.06172135        0.00810253        0.06393960        0.00752299
      88         -0.709524        2.000000        0.59845476        0.05016705        0.04351860        0.04725635        0.06662329        0.06147683        0.00710371        0.05746912        0.00852180
      89         -0.709524        2.000000        0.59845476        0.04530725        0.04902787        0.04660689        0.05903766        0.06237107        0.00823203        0.06416052        0.00739348
      90         -0.708138        2.000000        0.59113740        0.04008991        0.05415712        0.04454326        0.06288418        0.05811107        0.01543956        0.05590007        0.01185929
      91         -0.708138        2.000000        0.59113740        0.05880320        0.03009906        0.04988803        0.05093980        0.06076465        0.00998367        0.06519086        0.01731518
      92         -0.708138        2.000000        0.59113740        0.03989718        0.05453411        0.04435900        0.06307134        0.05801959        0.01552505        0.05580439        0.01177380
      93         -0.708072        2.000000        0.59014989        0.04830094        0.04348009        0.04693287        0.05988028        0.06174043        0.01031666        0.06247746        0.01263039
      94         -0.708072        2.000000        0.59014989        0.04211791        0.05174868        0.04484732        0.06433489        0.06061686        0.01378514        0.05914641        0.00916190
      95         -0.708072        2.000000        0.59014989        0.04829505        0.04348513        0.04693372        0.05988299        0.06174088        0.01031877        0.06247429        0.01262827
      96         -0.707754        2.000000        0.58576337        0.04907410        0.04301541        0.04723527        0.06060092        0.06618858        0.00939535        0.06862343        0.01020150
      97         -0.707754        2.000000        0.58576337        0.04130906        0.05302534        0.04499039        0.07385539        0.06321606        0.01057297        0.05834149        0.00902388
      98         -0.707754        2.000000        0.58576337        0.04894163        0.04328403        0.04709912        0.06095662        0.06600830        0.00942695        0.06844802        0.01016990
      99         -0.706943        2.000000        0.58505600        0.04381526        0.05489352        0.04727763        0.06153448        0.06088990        0.01500779        0.06059685        0.01158932
     100         -0.706943        2.000000        0.58505600        0.05844282        0.03576528        0.05177831        0.05991553        0.06127082        0.00976102        0.06183488        0.01683609
     101         -0.706943        2.000000        0.58505600        0.04372833        0.05532761        0.04693047        0.06157122        0.06086052        0.01512685        0.06058950        0.01147025
     102         -0.706571        2.000000        0.57963893        0.04888892        0.04595637        0.04771622        0.06155458        0.06612273        0.00797785        0.06916677        0.00874689
     103         -0.706571        2.000000        0.57963893        0.04422076        0.05188190        0.04645886        0.07693579        0.06285892        0.00943454        0.05704937        0.00729020
     104         -0.706571        2.000000        0.57963893        0.04945183        0.04472325        0.04838643        0.05835371        0.06786243        0.00767471        0.07062793        0.00905003
     105         -0.701313        2.000000        0.56089177        0.05822774        0.05822774        0.04292258        0.07978963        0.05799636        0.00830199        0.07978963        0.00707067
     106         -0.701313        2.000000        0.56089177        0.04802430        0.04802430        0.06332945        0.06526078        0.08705405        0.00707067        0.06526078        0.00830199
     107         -0.696832        2.000000        0.54484815        0.04464090        0.06438944        0.05075018        0.08184592        0.06324628        0.01377468        0.05491514        0.00924355
     108         -0.696832        2.000000        0.54484815        0.07064994        0.03073231        0.05839827        0.03594820        0.07367586        0.00692316        0.09038328        0.01609508
     109         -0.696832        2.000000        0.54484815        0.04448968        0.06465877        0.05063207        0.08221322        0.06308521        0.01382951        0.05470892        0.00918872
     110         -0.696611        2.000000        0.54899296        0.05165281        0.05125749        0.05153025        0.06624744        0.06087792        0.00989134        0.05846506        0.01072363
     111         -0.696611        2.000000        0.54899296        0.05113228        0.05193096        0.05137731        0.05298953        0.06388861        0.01114983        0.06871228        0.00946514
     112         -0.696611        2.000000        0.54899296        0.05165546        0.05125210        0.05153299        0.06635345        0.06082389        0.00988128        0.05841308        0.01073369
     113         -0.696490        2.000000        0.54353146        0.06174828        0.06174828        0.04453460        0.07290394        0.05987438        0.01128890        0.07290394        0.01211850
     114         -0.696490        2.000000        0.54353146        0.05027250        0.05027250        0.06748618        0.06421756        0.07724712        0.01211850        0.06421756        0.01128890
     115         -0.695320        2.000000        0.53572876        0.04913940        0.04913940        0.04913940        0.06565216        0.06565216        0.00918548        0.06565216        0.00918548
     116         -0.695174        2.000000        0.54740325        0.06001518        0.04492057        0.05451904        0.05109390        0.05690488        0.01384925        0.06023228        0.01730152
     117         -0.695174        2.000000        0.54740325        0.03986908        0.06933956        0.05024615        0.06587732        0.05431804        0.01897017        0.04803570        0.01218060
     118         -0.695174        2.000000        0.54740325        0.05957053        0.04519466        0.05468960        0.05125984        0.05700814        0.01390673        0.05996308        0.01724404
     119         -0.694916        2.000000        0.53419540        0.05427519        0.05427519        0.05427519        0.06927962        0.06927962        0.01029721        0.06927962        0.01029721
     120         -0.694274        2.000000        0.54366304        0.05539809        0.05539809        0.05539809        0.05143677        0.05143677        0.02455495        0.05143677        0.02455495
     121         -0.694167        2.000000        0.54440088        0.03321290        0.03321290        0.10262764        0.03478630        0.08245150        0.01983387        0.03478630        0.03209752
     122         -0.694167        2.000000        0.54440088        0.07948939        0.07948939        0.01007466        0.06656310        0.01889790        0.03209752        0.06656310        0.01983387
     123         -0.694004        2.000000        0.54379454        0.06407573        0.04230989        0.06073125        0.04533474        0.06193930        0.01506152        0.06495393        0.01743908
     124         -0.694004        2.000000        0.54379454        0.04197968        0.08060701        0.04453019        0.07985482        0.04733605        0.01846012        0.04503709        0.01404048
     125         -0.694004        2.000000        0.54379454        0.06106146        0.04419997        0.06185544        0.04703841        0.06295262        0.01522925        0.06223694        0.01727134
     126         -0.678929        2.000000        0.48674420        0.05828924        0.05163038        0.05623859        0.05790803        0.06030143        0.00835403        0.06136649        0.01107897
     127         -0.678929        2.000000        0.48674420        0.04964172        0.06277186        0.05374463        0.06369466        0.05900613        0.01239588        0.05687517        0.00703711
     128         -0.678929        2.000000        0.48674420        0.05822725        0.05175597        0.05617499        0.05797326        0.06026840        0.00839959        0.06133429        0.01103341
     129         -0.678447        2.000000        0.48969898        0.06596637        0.03903008        0.06554491        0.04058498        0.06266488        0.01234808        0.06301585        0.01645476
     130         -0.678447        2.000000        0.48969898        0.03988132        0.07989784        0.05076221        0.07461711        0.05035477        0.01705792        0.04129383        0.01174492
     131         -0.678447        2.000000        0.48969898        0.06469368        0.05161344        0.05423424        0.05106362        0.05324606        0.01379826        0.06195603        0.01500458
     132         -0.678178        2.000000        0.48375638        0.05451083        0.06460656        0.05766743        0.06832497        0.06124723        0.00948287        0.05802757        0.00996092
     133         -0.678178        2.000000        0.48375638        0.06766224        0.04772934        0.06139323        0.05111062        0.06504746        0.01019330        0.07144169        0.00925049
     134         -0.678178        2.000000        0.48375638        0.05461175        0.06444892        0.05772415        0.06816418        0.06130508        0.00948951        0.05813050        0.00995428
     135         -0.676935        2.000000        0.48265827        0.05240629        0.08019345        0.06096751        0.07406238        0.05921510        0.01629400        0.05260367        0.01224970
     136         -0.676935        2.000000        0.48265827        0.08864910        0.03337272        0.07154543        0.03790495        0.06738393        0.01025238        0.08059228        0.01829132
     137         -0.676935        2.000000        0.48265827        0.05251186        0.08000108        0.06105430        0.07391383        0.05928213        0.01626917        0.05268520        0.01227453
     138         -0.676104        2.000000        0.48535495        0.04648885        0.09608126        0.06247707        0.07027755        0.04800273        0.03540837        0.03740481        0.02223976
     139         -0.676104        2.000000        0.48535495        0.11276442        0.01098241        0.08130035        0.01386908        0.06047990        0.01520381        0.08133611        0.04244431
     140         -0.676104        2.000000        0.48535495        0.04579392        0.09798351        0.06126976        0.07153846        0.04720246        0.03586001        0.03694417        0.02178812
     141         -0.659734        2.000000        0.43018276        0.07418023        0.07418023        0.07418023        0.05803250        0.05803250        0.01267872        0.05803250        0.01267872
     142         -0.658811        2.000000        0.42841535        0.07380936        0.07380936        0.07380936        0.05994191        0.05994191        0.00755598        0.05994191        0.00755598
     143         -0.657384        2.000000        0.42079801        0.07950252        0.06542486        0.07528176        0.05424899        0.06156859        0.01338209        0.06470287        0.01606602
     144         -0.657384        2.000000        0.42079801        0.06114578        0.08945533        0.06960803        0.07209370        0.05735536        0.01742412        0.05107139        0.01202399