# Projected DOS for list 2 of 137 atoms, at iteration step i = 0, E(Fermi) =    -0.435913 a.u.
#     MO Eigenvalue [a.u.]      Occupation                 s                py                pz                px               d-2               d-1                d0               d+1               d+2
       1         -0.751701        2.000000        0.80136296        0.00266319        0.00266319        0.00266319        0.00044511        0.00044511        0.00012583        0.00044511        0.00012583
       2         -0.749353        2.000000        0.67963115        0.00532032        0.00856277        0.00628303        0.00224871        0.00202283        0.00070240        0.00192745        0.00048369
       3         -0.749353        2.000000        0.67963115        0.00954959        0.00297945        0.00763708        0.00169551        0.00215699        0.00037070        0.00234648        0.00081539
       4         -0.749353        2.000000        0.67963115        0.00529620        0.00862390        0.00624601        0.00225477        0.00201916        0.00070603        0.00192506        0.00048005
       5         -0.746285        2.000000        0.57393120        0.00613826        0.00613826        0.01626363        0.00163079        0.00445035        0.00158465        0.00163079        0.00304554
       6         -0.746285        2.000000        0.57393120        0.01288850        0.01288850        0.00276314        0.00351050        0.00069093        0.00304554        0.00351050        0.00158465
       7         -0.745412        2.000000        0.54586907        0.01355983        0.00971803        0.01251748        0.00657555        0.00606799        0.00090178        0.00587900        0.00082724
       8         -0.745412        2.000000        0.54586907        0.00868240        0.01574475        0.01136819        0.00548286        0.00627636        0.00080032        0.00676332        0.00092870
       9         -0.745412        2.000000        0.54586907        0.01355311        0.01033255        0.01190967        0.00646413        0.00617819        0.00089143        0.00588022        0.00083759
      10         -0.744593        2.000000        0.57817140        0.01614110        0.01614110        0.01614110        0.00923934        0.00923934        0.00205203        0.00923934        0.00205203
      11         -0.741467        2.000000        0.47433791        0.01020982        0.01888818        0.01294536        0.00684626        0.00542454        0.00599391        0.00477010        0.00376797
      12         -0.741467        2.000000        0.47433791        0.02155824        0.00428173        0.01620339        0.00335191        0.00620396        0.00265837        0.00748502        0.00710352
      13         -0.741467        2.000000        0.47433791        0.01027530        0.01887345        0.01289461        0.00684273        0.00541239        0.00599055        0.00478577        0.00377134
      14         -0.741084        2.000000        0.42355513        0.01375382        0.01415133        0.01387000        0.00734995        0.00842196        0.00189635        0.00886463        0.00274904
      15         -0.741084        2.000000        0.42355513        0.01426604        0.01347592        0.01403319        0.00992356        0.00780012        0.00316891        0.00691286        0.00147648
      16         -0.741084        2.000000        0.42355513        0.01375529        0.01414790        0.01387197        0.00736304        0.00841446        0.00190282        0.00885905        0.00274256
      17         -0.739806        2.000000        0.47323443        0.01615427        0.01615427        0.01615427        0.01331314        0.01331314        0.00109238        0.01331314        0.00109238
      18         -0.738690        2.000000        0.46940991        0.02102544        0.02366417        0.02182033        0.01983684        0.02026488        0.00210269        0.02044941        0.00206725
      19         -0.738690        2.000000        0.46940991        0.02446948        0.01913951        0.02290094        0.02088723        0.02001402        0.00204902        0.01964989        0.00212092
      20         -0.738690        2.000000        0.46940991        0.02101501        0.02370626        0.02178866        0.01982707        0.02027223        0.00210319        0.02045183        0.00206675
      21         -0.735676        2.000000        0.39171765        0.01200830        0.01016490        0.02687497        0.00638487        0.01058310        0.00593043        0.00684801        0.00859532
      22         -0.735676        2.000000        0.39171765        0.02069048        0.02253389        0.00582381        0.00949245        0.00529422        0.00859532        0.00902931        0.00593043
      23         -0.735100        2.000000        0.40427817        0.01911401        0.01911401        0.01911401        0.01159117        0.01159117        0.00898145        0.01159117        0.00898145
      24         -0.734993        2.000000        0.34756104        0.01873791        0.01382074        0.01727409        0.01298838        0.01286254        0.00412236        0.01280920        0.00559637
      25         -0.734993        2.000000        0.34756104        0.01245698        0.02185238        0.01552337        0.01269570        0.01292633        0.00624386        0.01303807        0.00347487
      26         -0.734993        2.000000        0.34756104        0.01863785        0.01415961        0.01703528        0.01297603        0.01287124        0.00421187        0.01281284        0.00550686
      27         -0.734441        2.000000        0.35677079        0.01838975        0.01635408        0.01778866        0.01713410        0.01576313        0.00329155        0.01518869        0.00260248
      28         -0.734441        2.000000        0.35677079        0.01573883        0.01985413        0.01693953        0.01378924        0.01657461        0.00224907        0.01772208        0.00364496
      29         -0.734441        2.000000        0.35677079        0.01840391        0.01632428        0.01780430        0.01716258        0.01574819        0.00330043        0.01517516        0.00259361
      30         -0.733451        2.000000        0.36800699        0.02255500        0.02262868        0.02216696        0.01619913        0.02802809        0.00273592        0.01808670        0.00563329
      31         -0.733451        2.000000        0.36800699        0.02234542        0.02227175        0.02273346        0.02534348        0.01351452        0.00563329        0.02345591        0.00273592
      32         -0.731204        2.000000        0.43771750        0.02586563        0.02355702        0.02548338        0.03959107        0.03788647        0.00183247        0.03754823        0.00176495
      33         -0.731204        2.000000        0.43771750        0.02317659        0.02754332        0.02418613        0.03606369        0.03903438        0.00173714        0.03992770        0.00186028
      34         -0.731204        2.000000        0.43771750        0.02586381        0.02380570        0.02523652        0.03937101        0.03810492        0.00182653        0.03754984        0.00177090
      35         -0.730661        2.000000        0.45002966        0.02836746        0.02836746        0.02836746        0.04361155        0.04361155        0.00167414        0.04361155        0.00167414
      36         -0.727979        2.000000        0.35673502        0.01497402        0.02604815        0.01854126        0.01672893        0.01421912        0.01119322        0.01302646        0.00752619
      37         -0.727979        2.000000        0.35673502        0.02968375        0.00705542        0.02282426        0.01037901        0.01565107        0.00557080        0.01794443        0.01314861
      38         -0.727979        2.000000        0.35673502        0.01490567        0.02645986        0.01819791        0.01686657        0.01410432        0.01131509        0.01300361        0.00740432
      39         -0.727775        2.000000        0.27629640        0.01776597        0.01794407        0.01782170        0.01660340        0.01734937        0.00607463        0.01768914        0.00612183
      40         -0.727775        2.000000        0.27629640        0.01800161        0.01764107        0.01788906        0.01845059        0.01693875        0.00614603        0.01625258        0.00605044
      41         -0.727775        2.000000        0.27629640        0.01776416        0.01794661        0.01782098        0.01658793        0.01735379        0.00607404        0.01770019        0.00612243
      42         -0.727107        2.000000        0.30243423        0.02148333        0.02120716        0.02137370        0.02249471        0.02316016        0.00712168        0.02359824        0.00753730
      43         -0.727107        2.000000        0.30243423        0.02110334        0.02165029        0.02131057        0.02426537        0.02290790        0.00774570        0.02207983        0.00691328
      44         -0.727107        2.000000        0.30243423        0.02147753        0.02120674        0.02137993        0.02249303        0.02318504        0.00712109        0.02357503        0.00753789
      45         -0.727012        2.000000        0.33947463        0.01523390        0.01523390        0.02113888        0.02375390        0.02690825        0.00251945        0.02375390        0.00492665
      46         -0.727012        2.000000        0.33947463        0.01917056        0.01917056        0.01326558        0.02585680        0.02270246        0.00492665        0.02585680        0.00251945
      47         -0.725730        2.000000        0.35953181        0.02090999        0.02485609        0.02219858        0.03523950        0.03352723        0.00464160        0.03269697        0.00318957
      48         -0.725730        2.000000        0.35953181        0.02613031        0.01819975        0.02363461        0.03095071        0.03445248        0.00244616        0.03606050        0.00538500
      49         -0.725730        2.000000        0.35953181        0.02092436        0.02490883        0.02213148        0.03527348        0.03348399        0.00465899        0.03270623        0.00317218
      50         -0.724611        2.000000        0.32732180        0.02602020        0.02733677        0.02640192        0.03589660        0.03959799        0.00227020        0.04110936        0.00282532
      51         -0.724611        2.000000        0.32732180        0.02771236        0.02509274        0.02695379        0.04478149        0.03741297        0.00310014        0.03440949        0.00199537
      52         -0.724611        2.000000        0.32732180        0.02602633        0.02732938        0.02640318        0.03592586        0.03959299        0.00227293        0.04108510        0.00282258
      53         -0.723818        2.000000        0.49886516        0.02456137        0.02456137        0.02456137        0.06804689        0.06804689        0.00066124        0.06804689        0.00066124
      54         -0.723405        2.000000        0.46994040        0.02657080        0.02798576        0.02700598        0.06708161        0.06805549        0.00100118        0.06848805        0.00097674
      55         -0.723405        2.000000        0.46994040        0.02843083        0.02557129        0.02756041        0.06948155        0.06750439        0.00096422        0.06663921        0.00101370
      56         -0.723405        2.000000        0.46994040        0.02656090        0.02800549        0.02699614        0.06706199        0.06806527        0.00100148        0.06849789        0.00097644
      57         -0.719430        2.000000        0.30851989        0.01838234        0.01547978        0.01751770        0.02781145        0.02832934        0.00394376        0.02854907        0.00488866
      58         -0.719430        2.000000        0.30851989        0.01463946        0.02038534        0.01635503        0.02905808        0.02803387        0.00535109        0.02759790        0.00348133
      59         -0.719430        2.000000        0.30851989        0.01835803        0.01551470        0.01750710        0.02782032        0.02832664        0.00395378        0.02854289        0.00487864
      60         -0.719404        2.000000        0.34904112        0.02112679        0.02112679        0.02112679        0.01682539        0.01682539        0.01164692        0.01682539        0.01164692
      61         -0.719106        2.000000        0.20665667        0.01720241        0.01720241        0.01720241        0.01804141        0.01804141        0.00653302        0.01804141        0.00653302
      62         -0.718934        2.000000        0.29748035        0.01776779        0.02034991        0.01857148        0.03252270        0.03231601        0.00531471        0.03222260        0.00427747
      63         -0.718934        2.000000        0.29748035        0.02113570        0.01600336        0.01955012        0.03201753        0.03242975        0.00376385        0.03261403        0.00582833
      64         -0.718934        2.000000        0.29748035        0.01778569        0.02033592        0.01856757        0.03252107        0.03231555        0.00530972        0.03222468        0.00428246
      65         -0.718477        2.000000        0.38443191        0.01676751        0.01676751        0.04741089        0.02253252        0.03939229        0.00939855        0.02253252        0.01579560
      66         -0.718477        2.000000        0.38443191        0.03719643        0.03719643        0.00655304        0.03377237        0.01691260        0.01579560        0.03377237        0.00939855
      67         -0.718392        2.000000        0.29846665        0.02474062        0.02014847        0.02318383        0.03188161        0.03506600        0.00619481        0.03669923        0.00787205
      68         -0.718392        2.000000        0.29846665        0.01878630        0.02736932        0.02191730        0.03945700        0.03373728        0.00857653        0.03045256        0.00549033
      69         -0.718392        2.000000        0.29846665        0.02454600        0.02055513        0.02297179        0.03230823        0.03484356        0.00632894        0.03649505        0.00773792
      70         -0.717897        2.000000        0.32173622        0.01997685        0.01997685        0.03122619        0.04275900        0.04123836        0.00418661        0.04275900        0.00552305
      71         -0.717897        2.000000        0.32173622        0.02747641        0.02747641        0.01622707        0.04174524        0.04326588        0.00552305        0.04174524        0.00418661
      72         -0.717826        2.000000        0.36318294        0.02443895        0.01937888        0.02391847        0.04519369        0.04526573        0.00363504        0.04527399        0.00483499
      73         -0.717826        2.000000        0.36318294        0.01922774        0.02756371        0.02094485        0.04532358        0.04521854        0.00516969        0.04519129        0.00330035
      74         -0.717826        2.000000        0.36318294        0.02406961        0.02079371        0.02287298        0.04521614        0.04524914        0.00390032        0.04526813        0.00456971
      75         -0.716414        2.000000        0.26174050        0.02875116        0.02875116        0.02875116        0.03830232        0.03830232        0.00493999        0.03830232        0.00493999
      76         -0.716213        2.000000        0.31990529        0.02927257        0.02690670        0.02857196        0.05575197        0.04719389        0.00181025        0.04359328        0.00188886
      77         -0.716213        2.000000        0.31990529        0.02620894        0.03093037        0.02761192        0.03507351        0.05212772        0.00192796        0.05933791        0.00177116
      78         -0.716213        2.000000        0.31990529        0.02926972        0.02691416        0.02856736        0.05571366        0.04721753        0.00181047        0.04360794        0.00188865
      79         -0.716137        2.000000        0.31281246        0.02864738        0.02864738        0.02575987        0.04135113        0.06589211        0.00185953        0.04135113        0.00219665
      80         -0.716137        2.000000        0.31281246        0.02672238        0.02672238        0.02960988        0.05771178        0.03317080        0.00219665        0.05771178        0.00185953
      81         -0.710211        2.000000        0.30649388        0.01675704        0.02108274        0.01810192        0.02906891        0.02825734        0.00532326        0.02789118        0.00405219
      82         -0.710211        2.000000        0.30649388        0.02241352        0.01375394        0.01977425        0.02707354        0.02871266        0.00341084        0.02943123        0.00596461
      83         -0.710211        2.000000        0.30649388        0.01677115        0.02110503        0.01806553        0.02907498        0.02824743        0.00532907        0.02789502        0.00404638
      84         -0.709558        2.000000        0.23548366        0.02342151        0.02342151        0.02342151        0.03610304        0.03610304        0.00652991        0.03610304        0.00652991
      85         -0.709547        2.000000        0.19686797        0.02079275        0.02079275        0.01654652        0.03129051        0.02625186        0.00527662        0.03129051        0.00414348
      86         -0.709547        2.000000        0.19686797        0.01796193        0.01796193        0.02220816        0.02793141        0.03297006        0.00414348        0.02793141        0.00527662
      87         -0.709524        2.000000        0.25829406        0.01759484        0.01974431        0.01877760        0.02584938        0.02736998        0.00492355        0.02923040        0.00451723
      88         -0.709524        2.000000        0.25829406        0.02104486        0.01616391        0.01890797        0.03148120        0.02716490        0.00422328        0.02380367        0.00521750
      89         -0.709524        2.000000        0.25829406        0.01747704        0.02020853        0.01843117        0.02511918        0.02791489        0.00501434        0.02941569        0.00442644
      90         -0.708138        2.000000        0.25508902        0.02413601        0.03354302        0.02711405        0.03877927        0.03507594        0.01129194        0.03336047        0.00843940
      91         -0.708138        2.000000        0.25508902        0.03664994        0.01745494        0.03068820        0.02951192        0.03713479        0.00694501        0.04056898        0.01278633
      92         -0.708138        2.000000        0.25508902        0.02400713        0.03379512        0.02699083        0.03892449        0.03500496        0.01136005        0.03328624        0.00837128
      93         -0.708072        2.000000        0.26422129        0.02962661        0.02519847        0.02836998        0.03711426        0.03834184        0.00634139        0.03882823        0.00799524
      94         -0.708072        2.000000        0.26422129        0.02394725        0.03279349        0.02645432        0.04005402        0.03760036        0.00882065        0.03662996        0.00551598
      95         -0.708072        2.000000        0.26422129        0.02962120        0.02520310        0.02837076        0.03711605        0.03834214        0.00634290        0.03882614        0.00799372
      96         -0.707754        2.000000        0.30713492        0.03098608        0.02699192        0.02977384        0.03684966        0.04052215        0.00629308        0.04212246        0.00643218
      97         -0.707754        2.000000        0.30713492        0.02586701        0.03359092        0.02829391        0.04556117        0.03856846        0.00649628        0.03536464        0.00622899
      98         -0.707754        2.000000        0.30713492        0.03089875        0.02716900        0.02968408        0.03708344        0.04040366        0.00629854        0.04200717        0.00642673
      99         -0.706943        2.000000        0.31101280        0.03178577        0.03996730        0.03434281        0.04573805        0.04513247        0.00950476        0.04485716        0.00643255
     100         -0.706943        2.000000        0.31101280        0.04258853        0.02584070        0.03766665        0.04421706        0.04549034        0.00478943        0.04602027        0.01114787
     101         -0.706943        2.000000        0.31101280        0.03172158        0.04028788        0.03408642        0.04577256        0.04510486        0.00961177        0.04485024        0.00632554
     102         -0.706571        2.000000        0.23536828        0.03194074        0.03043708        0.03133944        0.04174313        0.04494385        0.00316354        0.04707668        0.00320291
     103         -0.706571        2.000000        0.23536828        0.02954716        0.03347538        0.03069473        0.05252011        0.04265703        0.00323811        0.03858653        0.00312834
     104         -0.706571        2.000000        0.23536828        0.03222937        0.02980481        0.03168309        0.03950042        0.04616278        0.00314803        0.04810046        0.00321843
     105         -0.701313        2.000000        0.32907322        0.02127568        0.02127568        0.01011119        0.02896489        0.01500031        0.00393812        0.02896489        0.00370100
     106         -0.701313        2.000000        0.32907322        0.01383269        0.01383269        0.02499718        0.01965517        0.03361976        0.00370100        0.01965517        0.00393812
     107         -0.696832        2.000000        0.20882452        0.02910218        0.04639560        0.03445196        0.05849573        0.04286296        0.00408351        0.03586074        0.00291000
     108         -0.696832        2.000000        0.20882452        0.05187781        0.01692268        0.04114925        0.01991927        0.05162889        0.00230905        0.06567127        0.00468446
     109         -0.696832        2.000000        0.20882452        0.02896975        0.04663146        0.03434853        0.05880443        0.04272758        0.00409771        0.03568742        0.00289580
     110         -0.696611        2.000000        0.13460205        0.02685079        0.02582378        0.02653238        0.03524869        0.03254671        0.00355492        0.03133254        0.00440697
     111         -0.696611        2.000000        0.13460205        0.02549850        0.02757338        0.02613507        0.02857722        0.03406170        0.00484330        0.03648901        0.00311860
     112         -0.696611        2.000000        0.13460205        0.02685765        0.02580979        0.02653951        0.03530203        0.03251952        0.00354462        0.03130639        0.00441727
     113         -0.696490        2.000000        0.27675897        0.04400197        0.04400197        0.03087728        0.05236660        0.04048129        0.00591693        0.05236660        0.00619998
     114         -0.696490        2.000000        0.27675897        0.03525218        0.03525218        0.04837686        0.04444306        0.05632836        0.00619998        0.04444306        0.00591693
     115         -0.695320        2.000000        0.06728510        0.02950794        0.02950794        0.02950794        0.03972140        0.03972140        0.00397591        0.03972140        0.00397591
     116         -0.695174        2.000000        0.18510896        0.04264445        0.02905237        0.03769540        0.03213972        0.03903623        0.00740017        0.04298521        0.00924977
     117         -0.695174        2.000000        0.18510896        0.02450371        0.05104067        0.03384784        0.04968478        0.03596616        0.01014378        0.02851023        0.00650617
     118         -0.695174        2.000000        0.18510896        0.04224406        0.02929918        0.03784898        0.03233666        0.03915878        0.00743097        0.04266573        0.00921898
     119         -0.694916        2.000000        0.21052543        0.04329365        0.04329365        0.04329365        0.05530283        0.05530283        0.00427044        0.05530283        0.00427044
     120         -0.694274        2.000000        0.22745304        0.04474008        0.04474008        0.04474008        0.03915882        0.03915882        0.01557699        0.03915882        0.01557699
     121         -0.694167        2.000000        0.25063038        0.02629312        0.02629312        0.08712444        0.02447405        0.06826129        0.01197222        0.02447404        0.01963879
     122         -0.694167        2.000000        0.25063038        0.06684733        0.06684733        0.00601601        0.05366554        0.00987830        0.01963879        0.05366554        0.01197222
     123         -0.694004        2.000000        0.23132117        0.04980729        0.03198213        0.04706832        0.03594135        0.05160614        0.00740692        0.05445016        0.00845095
     124         -0.694004        2.000000        0.23132117        0.03171171        0.06334560        0.03380044        0.06850770        0.03782940        0.00889931        0.03566055        0.00695856
     125         -0.694004        2.000000        0.23132117        0.04733875        0.03353002        0.04798898        0.03754860        0.05256211        0.00748057        0.05188694        0.00837729
     126         -0.678929        2.000000        0.08649862        0.03675085        0.03460680        0.03609057        0.03710043        0.03738085        0.00453388        0.03750564        0.00587826
     127         -0.678929        2.000000        0.08649862        0.03396648        0.03819419        0.03528756        0.03777842        0.03722909        0.00652798        0.03697942        0.00388416
     128         -0.678929        2.000000        0.08649862        0.03673089        0.03464724        0.03607010        0.03710807        0.03737698        0.00455636        0.03750187        0.00585579
     129         -0.678447        2.000000        0.07214363        0.03623380        0.02339498        0.03603292        0.02422274        0.03581639        0.00450487        0.03600068        0.00528337
     130         -0.678447        2.000000        0.07214363        0.02380071        0.04287405        0.02898694        0.04209224        0.02935263        0.00539771        0.02459494        0.00439053
     131         -0.678447        2.000000        0.07214363        0.03562719        0.02939267        0.03064184        0.02972483        0.03087078        0.00477978        0.03544419        0.00500846
     132         -0.678178        2.000000        0.09502360        0.03727390        0.04688099        0.04027772        0.04885001        0.04167404        0.00351948        0.03840970        0.00453936
     133         -0.678178        2.000000        0.09502360        0.04978878        0.03082064        0.04382320        0.03139675        0.04552701        0.00503514        0.05200999        0.00302370
     134         -0.678178        2.000000        0.09502360        0.03736994        0.04673098        0.04033170        0.04868699        0.04173270        0.00353364        0.03851406        0.00452520
     135         -0.676935        2.000000        0.14106916        0.03823575        0.06276061        0.04579186        0.05881427        0.04443705        0.00599417        0.03803493        0.00502481
     136         -0.676935        2.000000        0.14106916        0.07022354        0.02143678        0.05512790        0.02380156        0.05234725        0.00454608        0.06513744        0.00647290
     137         -0.676935        2.000000        0.14106916        0.03832893        0.06259083        0.04586846        0.05867042        0.04450195        0.00598822        0.03811388        0.00503076
     138         -0.676104        2.000000        0.23033050        0.03903429        0.08340393        0.05333874        0.06225663        0.04100029        0.02145022        0.03088694        0.01328430
     139         -0.676104        2.000000        0.23033050        0.09833011        0.00726719        0.07017965        0.00842733        0.05290696        0.00892127        0.07280957        0.02581325
     140         -0.676104        2.000000        0.23033050        0.03841255        0.08510584        0.05225857        0.06345990        0.04023661        0.02173028        0.03044736        0.01300423
     141         -0.659734        2.000000        0.08803966        0.04434085        0.04434085        0.04434085        0.03287877        0.03287877        0.00893683        0.03287877        0.00893683
     142         -0.658811        2.000000        0.05661853        0.03382082        0.03382082        0.03382082        0.02931893        0.02931893        0.00517407        0.02931893        0.00517407
     143         -0.657384        2.000000        0.10736445        0.04732156        0.03708353        0.04425200        0.02853930        0.03379148        0.00871136        0.03604048        0.01019755
     144         -0.657384        2.000000        0.10736445        0.03397155        0.05455978        0.04012576        0.04134376        0.03076827        0.01094958        0.02625922        0.00795933