# Projected DOS for atomic kind H at iteration step i = 0, E(Fermi) =    -0.460514 a.u.
#     MO Eigenvalue [a.u.]      Occupation                 s
       1         -0.771623        2.000000        0.01093198
       2         -0.771091        2.000000        0.01252090
       3         -0.771091        2.000000        0.01252090
       4         -0.771091        2.000000        0.01252090
       5         -0.770088        2.000000        0.01393861
       6         -0.770088        2.000000        0.01393861
       7         -0.770088        2.000000        0.01393861
       8         -0.770056        2.000000        0.01624712
       9         -0.770056        2.000000        0.01624712
      10         -0.768859        2.000000        0.01591120
      11         -0.768603        2.000000        0.01862416
      12         -0.768603        2.000000        0.01862416
      13         -0.768603        2.000000        0.01862416
      14         -0.768569        2.000000        0.01724122
      15         -0.768569        2.000000        0.01724122
      16         -0.768569        2.000000        0.01724122
      17         -0.767814        2.000000        0.00996821
      18         -0.766948        2.000000        0.01971152
      19         -0.766948        2.000000        0.01971152
      20         -0.766948        2.000000        0.01971152
      21         -0.766723        2.000000        0.02300018
      22         -0.766632        2.000000        0.02151888
      23         -0.766632        2.000000        0.02151888
      24         -0.766546        2.000000        0.02137574
      25         -0.766546        2.000000        0.02137574
      26         -0.766546        2.000000        0.02137574
      27         -0.766001        2.000000        0.01427060
      28         -0.766001        2.000000        0.01427060
      29         -0.766001        2.000000        0.01427060
      30         -0.764784        2.000000        0.02428281
      31         -0.764784        2.000000        0.02428281
      32         -0.764784        2.000000        0.02428281
      33         -0.764324        2.000000        0.02243677
      34         -0.764324        2.000000        0.02243677
      35         -0.764167        2.000000        0.02478680
      36         -0.764167        2.000000        0.02478680
      37         -0.764167        2.000000        0.02478680
      38         -0.764103        2.000000        0.02552355
      39         -0.764103        2.000000        0.02552355
      40         -0.764103        2.000000        0.02552355
      41         -0.763748        2.000000        0.01852645
      42         -0.763748        2.000000        0.01852645
      43         -0.763748        2.000000        0.01852645
      44         -0.763065        2.000000        0.01899447
      45         -0.763065        2.000000        0.01899447
      46         -0.762517        2.000000        0.02129786
      47         -0.762014        2.000000        0.02399221
      48         -0.761875        2.000000        0.02816132
      49         -0.761875        2.000000        0.02816132
      50         -0.761875        2.000000        0.02816132
      51         -0.761688        2.000000        0.02830061
      52         -0.761688        2.000000        0.02830061
      53         -0.761688        2.000000        0.02830061
      54         -0.761575        2.000000        0.02070128
      55         -0.761256        2.000000        0.03010800
      56         -0.761090        2.000000        0.03107442
      57         -0.761090        2.000000        0.03107442
      58         -0.760998        2.000000        0.02972936
      59         -0.760998        2.000000        0.02972936
      60         -0.760998        2.000000        0.02972936
      61         -0.760424        2.000000        0.02133405
      62         -0.760424        2.000000        0.02133405
      63         -0.760424        2.000000        0.02133405
      64         -0.760330        2.000000        0.02271074
      65         -0.760330        2.000000        0.02271074
      66         -0.760330        2.000000        0.02271074
      67         -0.758950        2.000000        0.03260528
      68         -0.758950        2.000000        0.03260528
      69         -0.758950        2.000000        0.03260528
      70         -0.758683        2.000000        0.03717000
      71         -0.758683        2.000000        0.03717000
      72         -0.758683        2.000000        0.03717000
      73         -0.758357        2.000000        0.02322072
      74         -0.758357        2.000000        0.02322072
      75         -0.758357        2.000000        0.02322072
      76         -0.758234        2.000000        0.02990114
      77         -0.758222        2.000000        0.03042494
      78         -0.758222        2.000000        0.03042494
      79         -0.757806        2.000000        0.02458981
      80         -0.757806        2.000000        0.02458981
      81         -0.757806        2.000000        0.02458981
      82         -0.757600        2.000000        0.03548331
      83         -0.757600        2.000000        0.03548331
      84         -0.757600        2.000000        0.03548331
      85         -0.757254        2.000000        0.03486544
      86         -0.757254        2.000000        0.03486544
      87         -0.757254        2.000000        0.03486544
      88         -0.756740        2.000000        0.02754653
      89         -0.756740        2.000000        0.02754653
      90         -0.756607        2.000000        0.02472293
      91         -0.756284        2.000000        0.02739451
      92         -0.756284        2.000000        0.02739451
      93         -0.756284        2.000000        0.02739451
      94         -0.755785        2.000000        0.04209918
      95         -0.755785        2.000000        0.04209918
      96         -0.755438        2.000000        0.03522227
      97         -0.755438        2.000000        0.03522227
      98         -0.755438        2.000000        0.03522227
      99         -0.755043        2.000000        0.03904139
     100         -0.755043        2.000000        0.03904139
     101         -0.755043        2.000000        0.03904139
     102         -0.754619        2.000000        0.02685970
     103         -0.754619        2.000000        0.02685970
     104         -0.754619        2.000000        0.02685970
     105         -0.754536        2.000000        0.04096089
     106         -0.754536        2.000000        0.04096089
     107         -0.754536        2.000000        0.04096089
     108         -0.754063        2.000000        0.02767089
     109         -0.754063        2.000000        0.02767089
     110         -0.754063        2.000000        0.02767089
     111         -0.753611        2.000000        0.03449476
     112         -0.753611        2.000000        0.03449476
     113         -0.753595        2.000000        0.04251782
     114         -0.753595        2.000000        0.04251782
     115         -0.753595        2.000000        0.04251782
     116         -0.753030        2.000000        0.03426396
     117         -0.752859        2.000000        0.03616879
     118         -0.752859        2.000000        0.03616879
     119         -0.752456        2.000000        0.02878879
     120         -0.752456        2.000000        0.02878879
     121         -0.752249        2.000000        0.05018380
     122         -0.752249        2.000000        0.05018380
     123         -0.752249        2.000000        0.05018380
     124         -0.752199        2.000000        0.02863636
     125         -0.751929        2.000000        0.03106379
     126         -0.751929        2.000000        0.03106379
     127         -0.751929        2.000000        0.03106379
     128         -0.751869        2.000000        0.03008693
     129         -0.751869        2.000000        0.03008693
     130         -0.751869        2.000000        0.03008693
     131         -0.751607        2.000000        0.02510562
     132         -0.751247        2.000000        0.03903009
     133         -0.751247        2.000000        0.03903009
     134         -0.751247        2.000000        0.03903009
     135         -0.751022        2.000000        0.03229108
     136         -0.750789        2.000000        0.04409856
     137         -0.750789        2.000000        0.04409856
     138         -0.750343        2.000000        0.04336272
     139         -0.750343        2.000000        0.04336272
     140         -0.750343        2.000000        0.04336272
     141         -0.750325        2.000000        0.04470192
     142         -0.749892        2.000000        0.03444007
     143         -0.749892        2.000000        0.03444007
     144         -0.749892        2.000000        0.03444007
     145         -0.749595        2.000000        0.02217449
     146         -0.749466        2.000000        0.03104680
     147         -0.749466        2.000000        0.03104680
     148         -0.749466        2.000000        0.03104680
     149         -0.749367        2.000000        0.04135961
     150         -0.749367        2.000000        0.04135961
     151         -0.749367        2.000000        0.04135961
     152         -0.749214        2.000000        0.03581026
     153         -0.749214        2.000000        0.03581026
     154         -0.749214        2.000000        0.03581026
     155         -0.748609        2.000000        0.03908160
     156         -0.748609        2.000000        0.03908160
     157         -0.748609        2.000000        0.03908160
     158         -0.748477        2.000000        0.03930851
     159         -0.748477        2.000000        0.03930851
     160         -0.748477        2.000000        0.03930851
     161         -0.747997        2.000000        0.04445146
     162         -0.747997        2.000000        0.04445145
     163         -0.747997        2.000000        0.04445145
     164         -0.747886        2.000000        0.05581045
     165         -0.747886        2.000000        0.05581045
     166         -0.747570        2.000000        0.03819462
     167         -0.747570        2.000000        0.03819462
     168         -0.747570        2.000000        0.03819462
     169         -0.746971        2.000000        0.03459403
     170         -0.746971        2.000000        0.03459403
     171         -0.746865        2.000000        0.03775149
     172         -0.746846        2.000000        0.03556738
     173         -0.746846        2.000000        0.03556738
     174         -0.746846        2.000000        0.03556738
     175         -0.746320        2.000000        0.02980190
     176         -0.746317        2.000000        0.03147465
     177         -0.746317        2.000000        0.03147465
     178         -0.746317        2.000000        0.03147465
     179         -0.745910        2.000000        0.03158175
     180         -0.745910        2.000000        0.03158175
     181         -0.745910        2.000000        0.03158175
     182         -0.745792        2.000000        0.04210749
     183         -0.745792        2.000000        0.04210749
     184         -0.745792        2.000000        0.04210749
     185         -0.745715        2.000000        0.04450357
     186         -0.745715        2.000000        0.04450357
     187         -0.745715        2.000000        0.04450357
     188         -0.744969        2.000000        0.03423226
     189         -0.744969        2.000000        0.03423226
     190         -0.744969        2.000000        0.03423226
     191         -0.744959        2.000000        0.02957386
     192         -0.744624        2.000000        0.03496197
     193         -0.744624        2.000000        0.03496197
     194         -0.744305        2.000000        0.05203024
     195         -0.744305        2.000000        0.05203024
     196         -0.744278        2.000000        0.03851869
     197         -0.744278        2.000000        0.03851869
     198         -0.744278        2.000000        0.03851869
     199         -0.744183        2.000000        0.05646231
     200         -0.744004        2.000000        0.05832149
     201         -0.744004        2.000000        0.05832149
     202         -0.744004        2.000000        0.05832149
     203         -0.743950        2.000000        0.04089053
     204         -0.743950        2.000000        0.04089053
     205         -0.743950        2.000000        0.04089053
     206         -0.743723        2.000000        0.02025783
     207         -0.743723        2.000000        0.02025783
     208         -0.743723        2.000000        0.02025783
     209         -0.743551        2.000000        0.03216485
     210         -0.743551        2.000000        0.03216485
     211         -0.743451        2.000000        0.02415895
     212         -0.742818        2.000000        0.03839728
     213         -0.742818        2.000000        0.03839728
     214         -0.742818        2.000000        0.03839728
     215         -0.742647        2.000000        0.02765235
     216         -0.742647        2.000000        0.02765235
     217         -0.742647        2.000000        0.02765235
     218         -0.742633        2.000000        0.02373495
     219         -0.742633        2.000000        0.02373495
     220         -0.742476        2.000000        0.03129037
     221         -0.742336        2.000000        0.03259306
     222         -0.742336        2.000000        0.03259306
     223         -0.742336        2.000000        0.03259306
     224         -0.741965        2.000000        0.03598030
     225         -0.741965        2.000000        0.03598030
     226         -0.741965        2.000000        0.03598030
     227         -0.741957        2.000000        0.03445270
     228         -0.741957        2.000000        0.03445270
     229         -0.741957        2.000000        0.03445270
     230         -0.741641        2.000000        0.03936951
     231         -0.741641        2.000000        0.03936951
     232         -0.741287        2.000000        0.03226011
     233         -0.741287        2.000000        0.03226011
     234         -0.741287        2.000000        0.03226011
     235         -0.741214        2.000000        0.04553008
     236         -0.741214        2.000000        0.04553008
     237         -0.741214        2.000000        0.04553008
     238         -0.740786        2.000000        0.03688934
     239         -0.740786        2.000000        0.03688934
     240         -0.740786        2.000000        0.03688934
     241         -0.740612        2.000000        0.03188790
     242         -0.740612        2.000000        0.03188790
     243         -0.740612        2.000000        0.03188790
     244         -0.740518        2.000000        0.04351104
     245         -0.740518        2.000000        0.04351104
     246         -0.740273        2.000000        0.03338886
     247         -0.740273        2.000000        0.03338886
     248         -0.740273        2.000000        0.03338886
     249         -0.739678        2.000000        0.03483725
     250         -0.739673        2.000000        0.05456180
     251         -0.739673        2.000000        0.05456180
     252         -0.739673        2.000000        0.05456180
     253         -0.739347        2.000000        0.02690008
     254         -0.739347        2.000000        0.02690008
     255         -0.739347        2.000000        0.02690008
     256         -0.739219        2.000000        0.03019538
     257         -0.739219        2.000000        0.03019538
     258         -0.739161        2.000000        0.04223895
     259         -0.739161        2.000000        0.04223895
     260         -0.739161        2.000000        0.04223895
     261         -0.739075        2.000000        0.07611499
     262         -0.738816        2.000000        0.03608146
     263         -0.738494        2.000000        0.02596369
     264         -0.738494        2.000000        0.02596369
     265         -0.738494        2.000000        0.02596369
     266         -0.738422        2.000000        0.03715060
     267         -0.738422        2.000000        0.03715060
     268         -0.738045        2.000000        0.02198669
     269         -0.738008        2.000000        0.05325637
     270         -0.738008        2.000000        0.05325637
     271         -0.738008        2.000000        0.05325637
     272         -0.737892        2.000000        0.03443458
     273         -0.737892        2.000000        0.03443458
     274         -0.737892        2.000000        0.03443458
     275         -0.737134        2.000000        0.05149806
     276         -0.737134        2.000000        0.05149806
     277         -0.737134        2.000000        0.05149806
     278         -0.736509        2.000000        0.04251341
     279         -0.736509        2.000000        0.04251341
     280         -0.736509        2.000000        0.04251341
     281         -0.736451        2.000000        0.03477616
     282         -0.736451        2.000000        0.03477616
     283         -0.736451        2.000000        0.03477616
     284         -0.736094        2.000000        0.04190089
     285         -0.736094        2.000000        0.04190089
     286         -0.735959        2.000000        0.03979264
     287         -0.735892        2.000000        0.05281665
     288         -0.735892        2.000000        0.05281665
     289         -0.735892        2.000000        0.05281665
     290         -0.735612        2.000000        0.04905233
     291         -0.735612        2.000000        0.04905233
     292         -0.735564        2.000000        0.05880352
     293         -0.735447        2.000000        0.04438987
     294         -0.735447        2.000000        0.04438987
     295         -0.735447        2.000000        0.04438987
     296         -0.735222        2.000000        0.04176242
     297         -0.735222        2.000000        0.04176242
     298         -0.735222        2.000000        0.04176242
     299         -0.734740        2.000000        0.04833122
     300         -0.734740        2.000000        0.04833122
     301         -0.734740        2.000000        0.04833122
     302         -0.734460        2.000000        0.03377853
     303         -0.734460        2.000000        0.03377853
     304         -0.734460        2.000000        0.03377853
     305         -0.734377        2.000000        0.03339196
     306         -0.734377        2.000000        0.03339196
     307         -0.734377        2.000000        0.03339196
     308         -0.734359        2.000000        0.04038948
     309         -0.734359        2.000000        0.04038948
     310         -0.733887        2.000000        0.03285647
     311         -0.733887        2.000000        0.03285647
     312         -0.733887        2.000000        0.03285647
     313         -0.733849        2.000000        0.03826001
     314         -0.733630        2.000000        0.05073933
     315         -0.733630        2.000000        0.05073933
     316         -0.733630        2.000000        0.05073933
     317         -0.733213        2.000000        0.04089850
     318         -0.733213        2.000000        0.04089850
     319         -0.732998        2.000000        0.04607648
     320         -0.732919        2.000000        0.04800403
     321         -0.732919        2.000000        0.04800403
     322         -0.732919        2.000000        0.04800403
     323         -0.732707        2.000000        0.04160041
     324         -0.732707        2.000000        0.04160041
     325         -0.732707        2.000000        0.04160041
     326         -0.732540        2.000000        0.04202810
     327         -0.732540        2.000000        0.04202810
     328         -0.732540        2.000000        0.04202810
     329         -0.732069        2.000000        0.04363651
     330         -0.732069        2.000000        0.04363651
     331         -0.731671        2.000000        0.04505422
     332         -0.731671        2.000000        0.04505422
     333         -0.731377        2.000000        0.07468927
     334         -0.731251        2.000000        0.04999817
     335         -0.731251        2.000000        0.04999817
     336         -0.731251        2.000000        0.04999817
     337         -0.731215        2.000000        0.03630308
     338         -0.731215        2.000000        0.03630308
     339         -0.731215        2.000000        0.03630308
     340         -0.730752        2.000000        0.04273134
     341         -0.730555        2.000000        0.07553245
     342         -0.730555        2.000000        0.07553245
     343         -0.730555        2.000000        0.07553245
     344         -0.730265        2.000000        0.03619034
     345         -0.730265        2.000000        0.03619034
     346         -0.730265        2.000000        0.03619034
     347         -0.729331        2.000000        0.04011501
     348         -0.729331        2.000000        0.04011501
     349         -0.729125        2.000000        0.05250829
     350         -0.728872        2.000000        0.04950710
     351         -0.728760        2.000000        0.05107308
     352         -0.728760        2.000000        0.05107308
     353         -0.728760        2.000000        0.05107308
     354         -0.728564        2.000000        0.04368108
     355         -0.728564        2.000000        0.04368108
     356         -0.728564        2.000000        0.04368108
     357         -0.728125        2.000000        0.04215970
     358         -0.728125        2.000000        0.04215970
     359         -0.728125        2.000000        0.04215970
     360         -0.727686        2.000000        0.03949456
     361         -0.727686        2.000000        0.03949456
     362         -0.727139        2.000000        0.05007865
     363         -0.727139        2.000000        0.05007865
     364         -0.727139        2.000000        0.05007865
     365         -0.726506        2.000000        0.05720280
     366         -0.726506        2.000000        0.05720280
     367         -0.726315        2.000000        0.05820509
     368         -0.726315        2.000000        0.05820509
     369         -0.726315        2.000000        0.05820509
     370         -0.725981        2.000000        0.05190607
     371         -0.725981        2.000000        0.05190607
     372         -0.725981        2.000000        0.05190607
     373         -0.725481        2.000000        0.03597224
     374         -0.725481        2.000000        0.03597224
     375         -0.725481        2.000000        0.03597224
     376         -0.725247        2.000000        0.04367471
     377         -0.725247        2.000000        0.04367471
     378         -0.725247        2.000000        0.04367471
     379         -0.725219        2.000000        0.04488181
     380         -0.725019        2.000000        0.06578162
     381         -0.725019        2.000000        0.06578162
     382         -0.725019        2.000000        0.06578162
     383         -0.725000        2.000000        0.06239243
     384         -0.725000        2.000000        0.06239243
     385         -0.724979        2.000000        0.05684048
     386         -0.724979        2.000000        0.05684048
     387         -0.724979        2.000000        0.05684048
     388         -0.724233        2.000000        0.06299875
     389         -0.724233        2.000000        0.06299875
     390         -0.724233        2.000000        0.06299875
     391         -0.724192        2.000000        0.04889211
     392         -0.724026        2.000000        0.08539447
     393         -0.724026        2.000000        0.08539447
     394         -0.724026        2.000000        0.08539447
     395         -0.723442        2.000000        0.05277790
     396         -0.723442        2.000000        0.05277790
     397         -0.723442        2.000000        0.05277790
     398         -0.722974        2.000000        0.04819868
     399         -0.722974        2.000000        0.04819868
     400         -0.722974        2.000000        0.04819868
     401         -0.722768        2.000000        0.04987293
     402         -0.722768        2.000000        0.04987293
     403         -0.722744        2.000000        0.05060499
     404         -0.722744        2.000000        0.05060499
     405         -0.722744        2.000000        0.05060499
     406         -0.722511        2.000000        0.06226475
     407         -0.721634        2.000000        0.05200080
     408         -0.721634        2.000000        0.05200080
     409         -0.721634        2.000000        0.05200080
     410         -0.721630        2.000000        0.04434258
     411         -0.721630        2.000000        0.04434258
     412         -0.721630        2.000000        0.04434258
     413         -0.721457        2.000000        0.05418272
     414         -0.721457        2.000000        0.05418272
     415         -0.721457        2.000000        0.05418272
     416         -0.720576        2.000000        0.05692671
     417         -0.720576        2.000000        0.05692671
     418         -0.719774        2.000000        0.07528822
     419         -0.719774        2.000000        0.07528822
     420         -0.719774        2.000000        0.07528822
     421         -0.718969        2.000000        0.07587780
     422         -0.718969        2.000000        0.07587780
     423         -0.718969        2.000000        0.07587780
     424         -0.718965        2.000000        0.05455758
     425         -0.718965        2.000000        0.05455758
     426         -0.718965        2.000000        0.05455758
     427         -0.718334        2.000000        0.06389897
     428         -0.716318        2.000000        0.05333862
     429         -0.716258        2.000000        0.05673673
     430         -0.716258        2.000000        0.05673673
     431         -0.716054        2.000000        0.06957623
     432         -0.716054        2.000000        0.06957623
     433         -0.716006        2.000000        0.08526579
     434         -0.716006        2.000000        0.08526579
     435         -0.716006        2.000000        0.08526579
     436         -0.715897        2.000000        0.07074665
     437         -0.715897        2.000000        0.07074665
     438         -0.715897        2.000000        0.07074665
     439         -0.714986        2.000000        0.08055811
     440         -0.714986        2.000000        0.08055811
     441         -0.714986        2.000000        0.08055811
     442         -0.714982        2.000000        0.05825431
     443         -0.714982        2.000000        0.05825431
     444         -0.714982        2.000000        0.05825431
     445         -0.714357        2.000000        0.12684617
     446         -0.714109        2.000000        0.08932269
     447         -0.714109        2.000000        0.08932269
     448         -0.714046        2.000000        0.09396623
     449         -0.714046        2.000000        0.09396623
     450         -0.714046        2.000000        0.09396623
     451         -0.713125        2.000000        0.08003877
     452         -0.713125        2.000000        0.08003877
     453         -0.713125        2.000000        0.08003877
     454         -0.712623        2.000000        0.05430949
     455         -0.712623        2.000000        0.05430949
     456         -0.712557        2.000000        0.06708603
     457         -0.712557        2.000000        0.06708603
     458         -0.712557        2.000000        0.06708603
     459         -0.712389        2.000000        0.05766270
     460         -0.711903        2.000000        0.06658560
     461         -0.711903        2.000000        0.06658560
     462         -0.711903        2.000000        0.06658560
     463         -0.711845        2.000000        0.08102297
     464         -0.711845        2.000000        0.08102297
     465         -0.711845        2.000000        0.08102296
     466         -0.711369        2.000000        0.06879586
     467         -0.711015        2.000000        0.11124978
     468         -0.711015        2.000000        0.11124978
     469         -0.710836        2.000000        0.11821090
     470         -0.710797        2.000000        0.08822683
     471         -0.710797        2.000000        0.08822683
     472         -0.710797        2.000000        0.08822683
     473         -0.710391        2.000000        0.09045436
     474         -0.710391        2.000000        0.09045436
     475         -0.710391        2.000000        0.09045436
     476         -0.709707        2.000000        0.10253888
     477         -0.709707        2.000000        0.10253888
     478         -0.709154        2.000000        0.12012189
     479         -0.709154        2.000000        0.12012189
     480         -0.709154        2.000000        0.12012189
     481         -0.707786        2.000000        0.09843830
     482         -0.707026        2.000000        0.08287603
     483         -0.706797        2.000000        0.10743683
     484         -0.706797        2.000000        0.10743683
     485         -0.706797        2.000000        0.10743683
     486         -0.706320        2.000000        0.14160956
     487         -0.706320        2.000000        0.14160956
     488         -0.706320        2.000000        0.14160956
     489         -0.706015        2.000000        0.13934768