# Projected DOS for atomic kind Si at iteration step i = 0, E(Fermi) =    -0.460514 a.u.
#     MO Eigenvalue [a.u.]      Occupation                 s                py                pz                px               d-2               d-1                d0               d+1               d+2
       1         -0.771623        2.000000        0.97572052        0.00328214        0.00328214        0.00328214        0.00101440        0.00101440        0.00022893        0.00101440        0.00022893
       2         -0.771091        2.000000        0.96420975        0.00538191        0.00551740        0.00641895        0.00167418        0.00179119        0.00039754        0.00165659        0.00043158
       3         -0.771091        2.000000        0.96420975        0.00735209        0.00680176        0.00316442        0.00184087        0.00136878        0.00048313        0.00191230        0.00034599
       4         -0.771091        2.000000        0.96420975        0.00458427        0.00499910        0.00773489        0.00160691        0.00196198        0.00036301        0.00155307        0.00046611
       5         -0.770088        2.000000        0.94813241        0.01033696        0.00989877        0.00699118        0.00321453        0.00341493        0.00041307        0.00318432        0.00047522
       6         -0.770088        2.000000        0.94813241        0.00739887        0.00798104        0.01184700        0.00334671        0.00308025        0.00048547        0.00338683        0.00040282
       7         -0.770088        2.000000        0.94813241        0.00949108        0.00934710        0.00838873        0.00325255        0.00331860        0.00043389        0.00324263        0.00045439
       8         -0.770056        2.000000        0.94249897        0.01326494        0.01240506        0.00364458        0.00351706        0.00153639        0.00194537        0.00371147        0.00122905
       9         -0.770056        2.000000        0.94249897        0.00627812        0.00713799        0.01589847        0.00232622        0.00430689        0.00122905        0.00213181        0.00194537
      10         -0.768859        2.000000        0.92907479        0.01250140        0.01250140        0.01250140        0.00561522        0.00561522        0.00033207        0.00561522        0.00033207
      11         -0.768603        2.000000        0.92025208        0.01248701        0.01292607        0.01584105        0.00497997        0.00549107        0.00214434        0.00490298        0.00235127
      12         -0.768603        2.000000        0.92025208        0.01543268        0.01484832        0.01097313        0.00531701        0.00463755        0.00238532        0.00541947        0.00211028
      13         -0.768603        2.000000        0.92025208        0.01333445        0.01347974        0.01443995        0.00507705        0.00524541        0.00221375        0.00505157        0.00228186
      14         -0.768569        2.000000        0.92140224        0.01381077        0.01376567        0.01346808        0.00612518        0.00499535        0.00160544        0.00629642        0.00128962
      15         -0.768569        2.000000        0.92140224        0.01350957        0.01356943        0.01396552        0.00538014        0.00688393        0.00123725        0.00515289        0.00165782
      16         -0.768569        2.000000        0.92140224        0.01372418        0.01370942        0.01361092        0.00591163        0.00553767        0.00149991        0.00596765        0.00139516
      17         -0.767814        2.000000        0.94058216        0.01143909        0.01143909        0.01143909        0.00395998        0.00395998        0.00162620        0.00395998        0.00162620
      18         -0.766948        2.000000        0.89821492        0.01551765        0.01610560        0.02004427        0.00917944        0.00947101        0.00119378        0.00913591        0.00142590
      19         -0.766948        2.000000        0.89821492        0.01949127        0.01870505        0.01347121        0.00937187        0.00898442        0.00146389        0.00943007        0.00115578
      20         -0.766948        2.000000        0.89821492        0.01665861        0.01685688        0.01815204        0.00923505        0.00933093        0.00127184        0.00922038        0.00134783
      21         -0.766723        2.000000        0.89184765        0.01792477        0.01792477        0.01792477        0.00798229        0.00798229        0.00371548        0.00798229        0.00371548
      22         -0.766632        2.000000        0.88979973        0.02297111        0.01766868        0.01461077        0.00965540        0.01112582        0.00287772        0.00710570        0.00266619
      23         -0.766632        2.000000        0.88979973        0.01386260        0.01916503        0.02222294        0.00893588        0.00746546        0.00266619        0.01148558        0.00287772
      24         -0.766546        2.000000        0.89030467        0.01964625        0.01928202        0.01690709        0.00844009        0.00846350        0.00360630        0.00843649        0.00353786
      25         -0.766546        2.000000        0.89030467        0.01444980        0.01589951        0.02548605        0.00847343        0.00837892        0.00343359        0.00848773        0.00371056
      26         -0.766546        2.000000        0.89030467        0.02173930        0.02065383        0.01344222        0.00842656        0.00849766        0.00367634        0.00841586        0.00346781
      27         -0.766001        2.000000        0.90318406        0.01644875        0.01687688        0.01980227        0.00736279        0.00753693        0.00347585        0.00733731        0.00370456
      28         -0.766001        2.000000        0.90318406        0.02280409        0.02105041        0.00927340        0.00761123        0.00691019        0.00404920        0.00771561        0.00313121
      29         -0.766001        2.000000        0.90318406        0.01387506        0.01520061        0.02405223        0.00726301        0.00778991        0.00324556        0.00718411        0.00393484
      30         -0.764784        2.000000        0.86616399        0.02184945        0.02165613        0.02043829        0.01391885        0.01393217        0.00194656        0.01391674        0.00189502
      31         -0.764784        2.000000        0.86616399        0.01913863        0.01989511        0.02491013        0.01393811        0.01388325        0.00181368        0.01394639        0.00202790
      32         -0.764784        2.000000        0.86616399        0.02295579        0.02239262        0.01859546        0.01391079        0.01395233        0.00200213        0.01390463        0.00183945
      33         -0.764324        2.000000        0.86239157        0.03074219        0.01543390        0.02111765        0.01203725        0.01351550        0.00186896        0.01601867        0.00443755
      34         -0.764324        2.000000        0.86239157        0.01412031        0.02942860        0.02374484        0.01567703        0.01419878        0.00443755        0.01169560        0.00186896
      35         -0.764167        2.000000        0.85854234        0.02267072        0.02198273        0.02374644        0.01259857        0.01296890        0.00488166        0.01274303        0.00507881
      36         -0.764167        2.000000        0.85854234        0.02411468        0.02442345        0.01986175        0.01311106        0.01215322        0.00517606        0.01304622        0.00478441
      37         -0.764167        2.000000        0.85854234        0.02161449        0.02199370        0.02479169        0.01260087        0.01318838        0.00488298        0.01252125        0.00507749
      38         -0.764103        2.000000        0.85643828        0.02156290        0.02209018        0.02611312        0.01319960        0.01197730        0.00492641        0.01335981        0.00480886
      39         -0.764103        2.000000        0.85643828        0.02552081        0.02480948        0.01943591        0.01237339        0.01400606        0.00478925        0.01215726        0.00494602
      40         -0.764103        2.000000        0.85643828        0.02268249        0.02286654        0.02421717        0.01296372        0.01255335        0.00488725        0.01301964        0.00484802
      41         -0.763748        2.000000        0.86280028        0.02559121        0.02476729        0.01940185        0.01292116        0.01533755        0.00402750        0.01255009        0.00407661
      42         -0.763748        2.000000        0.86280028        0.02014573        0.02123986        0.02837476        0.01450978        0.01129649        0.00408472        0.01500253        0.00401939
      43         -0.763748        2.000000        0.86280028        0.02402341        0.02375321        0.02198374        0.01337786        0.01417477        0.00404395        0.01325617        0.00406016
      44         -0.763065        2.000000        0.85664953        0.01310767        0.02033224        0.04082056        0.01001586        0.01498750        0.00729881        0.00826277        0.00953058
      45         -0.763065        2.000000        0.85664953        0.03639931        0.02917474        0.00868642        0.01216156        0.00718992        0.00953058        0.01391465        0.00729881
      46         -0.762517        2.000000        0.84653489        0.02521596        0.02521596        0.02521596        0.01541941        0.01541941        0.00513058        0.01541941        0.00513058
      47         -0.762014        2.000000        0.83414074        0.02561272        0.02561272        0.02561272        0.01926097        0.01926097        0.00362299        0.01926097        0.00362299
      48         -0.761875        2.000000        0.82867490        0.02608130        0.02610529        0.02531127        0.02076643        0.01838531        0.00317729        0.02069449        0.00264239
      49         -0.761875        2.000000        0.82867490        0.02544875        0.02552706        0.02652206        0.01903242        0.02201624        0.00261012        0.01879757        0.00320955
      50         -0.761875        2.000000        0.82867490        0.02596782        0.02586551        0.02566453        0.02004738        0.01944468        0.00294210        0.02035417        0.00287758
      51         -0.761688        2.000000        0.82721304        0.02563842        0.02578492        0.02675903        0.01911866        0.01972564        0.00413658        0.01902737        0.00429573
      52         -0.761688        2.000000        0.82721304        0.02776483        0.02717196        0.02324558        0.01998295        0.01753634        0.00453667        0.02035238        0.00389564
      53         -0.761688        2.000000        0.82721304        0.02477912        0.02522549        0.02817777        0.01877006        0.02060968        0.00397521        0.01849192        0.00445709
      54         -0.761575        2.000000        0.83102830        0.02665374        0.02665374        0.02665374        0.02027513        0.02027513        0.00374191        0.02027513        0.00374191
      55         -0.761256        2.000000        0.82442827        0.02754619        0.02754619        0.02754619        0.01661886        0.01661886        0.00648429        0.01661886        0.00648429
      56         -0.761090        2.000000        0.82015537        0.03903455        0.02283604        0.01998405        0.01830258        0.01863248        0.00653188        0.01642889        0.00701974
      57         -0.761090        2.000000        0.82015537        0.01553521        0.03173372        0.03458571        0.01727338        0.01694349        0.00701974        0.01914708        0.00653188
      58         -0.760998        2.000000        0.81750453        0.03181625        0.03043021        0.02133082        0.01761372        0.02008501        0.00720667        0.01723728        0.00704614
      59         -0.760998        2.000000        0.81750453        0.02259989        0.02443264        0.03654475        0.01924259        0.01595307        0.00701944        0.01974035        0.00723337
      60         -0.760998        2.000000        0.81750453        0.02916114        0.02871443        0.02570170        0.01807970        0.01889793        0.00715311        0.01795838        0.00709970
      61         -0.760424        2.000000        0.81851091        0.02990933        0.02964178        0.02784845        0.02107572        0.01657092        0.00717811        0.02174782        0.00618291
      62         -0.760424        2.000000        0.81851091        0.02810144        0.02845715        0.03084096        0.01809996        0.02408807        0.00601909        0.01720643        0.00734194
      63         -0.760424        2.000000        0.81851091        0.02938878        0.02930063        0.02871014        0.02021877        0.01873547        0.00684434        0.02044021        0.00651668
      64         -0.760330        2.000000        0.81584946        0.02978546        0.02963625        0.02862504        0.01965279        0.01914511        0.00751704        0.01972769        0.00735042
      65         -0.760330        2.000000        0.81584946        0.02876795        0.02896773        0.03031107        0.01931716        0.01999157        0.00732321        0.01921686        0.00754425
      66         -0.760330        2.000000        0.81584946        0.02949334        0.02944277        0.02911064        0.01955565        0.01938890        0.00746094        0.01958104        0.00740652
      67         -0.758950        2.000000        0.79118407        0.02836301        0.02859291        0.03012654        0.02728452        0.02719423        0.00361606        0.02729805        0.00373533
      68         -0.758950        2.000000        0.79118407        0.03170306        0.03077182        0.02460758        0.02715625        0.02751914        0.00391506        0.02710142        0.00343632
      69         -0.758950        2.000000        0.79118407        0.02701639        0.02771773        0.03234834        0.02733604        0.02706343        0.00349596        0.02737733        0.00385543
      70         -0.758683        2.000000        0.79384957        0.03210872        0.03094013        0.02324847        0.02404746        0.02326295        0.00587515        0.02416665        0.00533089
      71         -0.758683        2.000000        0.79384957        0.02432370        0.02586738        0.03610623        0.02353007        0.02457438        0.00524028        0.02337262        0.00596576
      72         -0.758683        2.000000        0.79384957        0.02986490        0.02948980        0.02694261        0.02389954        0.02363974        0.00569364        0.02393779        0.00551241
      73         -0.758357        2.000000        0.79507653        0.02944166        0.03036565        0.03652214        0.02124381        0.02209480        0.01002806        0.02111609        0.01089053
      74         -0.758357        2.000000        0.79507653        0.04287198        0.03913500        0.01432248        0.02245597        0.01902621        0.01219625        0.02297252        0.00872234
      75         -0.758357        2.000000        0.79507653        0.02401582        0.02682880        0.04548483        0.02075492        0.02333369        0.00915358        0.02036609        0.01176501
      76         -0.758234        2.000000        0.77917440        0.03038691        0.03038691        0.03038691        0.03008101        0.03008101        0.00476035        0.03008101        0.00476035
      77         -0.758222        2.000000        0.78385539        0.03499986        0.02518122        0.03161444        0.03328698        0.02764168        0.00471531        0.02467090        0.00360927
      78         -0.758222        2.000000        0.78385539        0.02619715        0.03601580        0.02958258        0.02377940        0.02942469        0.00360927        0.03239547        0.00471531
      79         -0.757806        2.000000        0.78389978        0.02633621        0.02835710        0.04172917        0.02696899        0.02702489        0.00632807        0.02696054        0.00780544
      80         -0.757806        2.000000        0.78389978        0.03986455        0.03716881        0.01938911        0.02700582        0.02693151        0.00804836        0.02701709        0.00608516
      81         -0.757806        2.000000        0.78389978        0.03022171        0.03089656        0.03530420        0.02697961        0.02699803        0.00682384        0.02697679        0.00730967
      82         -0.757600        2.000000        0.78376582        0.03097822        0.03128197        0.03328782        0.02281444        0.02222551        0.00857678        0.02290363        0.00868250
      83         -0.757600        2.000000        0.78376582        0.03536275        0.03413754        0.02604773        0.02197602        0.02435126        0.00884281        0.02161629        0.00841647
      84         -0.757600        2.000000        0.78376582        0.02920704        0.03012851        0.03621247        0.02315311        0.02136680        0.00846932        0.02342366        0.00878996
      85         -0.757254        2.000000        0.77669856        0.03067963        0.03109067        0.03381401        0.02528027        0.02486094        0.00859644        0.02534356        0.00877048
      86         -0.757254        2.000000        0.77669856        0.03663124        0.03496697        0.02398609        0.02468342        0.02637418        0.00903409        0.02442716        0.00833284
      87         -0.757254        2.000000        0.77669856        0.02827344        0.02952667        0.03778420        0.02552108        0.02424964        0.00841986        0.02571405        0.00894707
      88         -0.756740        2.000000        0.77429573        0.04297669        0.02728928        0.03041164        0.03626459        0.03206897        0.00784472        0.01518483        0.00611701
      89         -0.756740        2.000000        0.77429573        0.02414172        0.03982913        0.03670677        0.01941434        0.02360996        0.00611701        0.04049410        0.00784472
      90         -0.756607        2.000000        0.77137048        0.03413821        0.03413821        0.03413821        0.02756029        0.02756029        0.00940555        0.02756029        0.00940555
      91         -0.756284        2.000000        0.77111716        0.04049035        0.03848985        0.02537826        0.02384385        0.02535877        0.01279952        0.02361271        0.01151502
      92         -0.756284        2.000000        0.77111716        0.02720516        0.02984441        0.04730889        0.02484275        0.02282490        0.01130033        0.02514769        0.01301421
      93         -0.756284        2.000000        0.77111716        0.03666295        0.03602420        0.03167131        0.02412874        0.02463167        0.01237196        0.02405493        0.01194258
      94         -0.755785        2.000000        0.75894657        0.02827412        0.02641153        0.03638220        0.03043625        0.03842333        0.00260891        0.03192829        0.00448962
      95         -0.755785        2.000000        0.75894657        0.03243778        0.03430037        0.02432970        0.03675567        0.02876859        0.00448962        0.03526363        0.00260891
      96         -0.755438        2.000000        0.75347472        0.03430379        0.03367601        0.02951939        0.03450336        0.03656429        0.00431601        0.03419210        0.00422806
      97         -0.755438        2.000000        0.75347472        0.03010057        0.03093678        0.03646186        0.03586152        0.03312209        0.00421361        0.03627613        0.00433046
      98         -0.755438        2.000000        0.75347472        0.03309484        0.03288641        0.03151795        0.03489486        0.03557337        0.00428649        0.03479152        0.00425758
      99         -0.755043        2.000000        0.75066314        0.03130124        0.03159582        0.03356281        0.03348579        0.03571094        0.00562447        0.03315255        0.00586187
     100         -0.755043        2.000000        0.75066314        0.03328711        0.03289355        0.03027920        0.03495385        0.03199637        0.00590080        0.03539905        0.00558555
     101         -0.755043        2.000000        0.75066314        0.03187151        0.03197049        0.03261785        0.03390964        0.03464196        0.00570425        0.03379767        0.00578209
     102         -0.754619        2.000000        0.74779491        0.03722953        0.03666921        0.03290185        0.03335432        0.03527983        0.00851936        0.03306794        0.00832334
     103         -0.754619        2.000000        0.74779491        0.02904359        0.03128010        0.04647690        0.03610871        0.02834158        0.00802525        0.03725180        0.00881744
     104         -0.754619        2.000000        0.74779491        0.04052748        0.03885128        0.02742184        0.03223906        0.03808068        0.00871943        0.03138235        0.00812327
     105         -0.754536        2.000000        0.74550821        0.03190826        0.03216120        0.03384196        0.03494954        0.03327867        0.00616141        0.03520099        0.00602887
     106         -0.754536        2.000000        0.74550821        0.03360648        0.03326962        0.03103533        0.03384765        0.03606878        0.00600707        0.03351277        0.00618321
     107         -0.754536        2.000000        0.74550821        0.03239669        0.03248061        0.03303413        0.03463201        0.03408175        0.00611694        0.03471544        0.00607334
     108         -0.754063        2.000000        0.73076150        0.03538814        0.03509941        0.03321553        0.04311182        0.04414847        0.00385748        0.04295295        0.00379382
     109         -0.754063        2.000000        0.73076150        0.03126067        0.03241592        0.04002649        0.04458846        0.04040061        0.00369683        0.04522416        0.00395446
     110         -0.754063        2.000000        0.73076150        0.03705427        0.03618775        0.03046106        0.04251295        0.04566416        0.00392263        0.04203612        0.00372867
     111         -0.753611        2.000000        0.74436993        0.03220150        0.03089629        0.04523843        0.02754257        0.03406412        0.00974659        0.02813607        0.01330972
     112         -0.753611        2.000000        0.74436993        0.04002265        0.04132786        0.02698572        0.03228594        0.02576439        0.01330972        0.03169244        0.00974659
     113         -0.753595        2.000000        0.74017188        0.03898048        0.03745953        0.02734407        0.03126930        0.03510953        0.00836822        0.03069189        0.00808727
     114         -0.753595        2.000000        0.74017188        0.02876665        0.03078343        0.04423401        0.03380382        0.02869744        0.00804086        0.03456947        0.00841463
     115         -0.753595        2.000000        0.74017188        0.03603695        0.03554113        0.03220600        0.03199760        0.03326375        0.00827415        0.03180937        0.00818134
     116         -0.753030        2.000000        0.73556657        0.03637893        0.03637893        0.03637893        0.03226186        0.03226186        0.01212355        0.03226186        0.01212355
     117         -0.752859        2.000000        0.73966402        0.03561422        0.03781925        0.03768107        0.02698798        0.02752307        0.01094139        0.03552688        0.01207333
     118         -0.752859        2.000000        0.73966402        0.03846214        0.03625711        0.03639529        0.03303731        0.03250222        0.01207333        0.02449840        0.01094139
     119         -0.752456        2.000000        0.73641337        0.07109822        0.02136946        0.02789236        0.02134289        0.02281935        0.01323380        0.03259903        0.02444274
     120         -0.752456        2.000000        0.73641337        0.00914181        0.05887056        0.05234767        0.02983129        0.02835483        0.02444274        0.01857515        0.01323380
     121         -0.752249        2.000000        0.72898272        0.03278088        0.03263352        0.03165508        0.03789210        0.03653217        0.00572356        0.03809692        0.00551926
     122         -0.752249        2.000000        0.72898272        0.03064558        0.03123696        0.03518693        0.03595102        0.04144111        0.00520858        0.03512906        0.00603424
     123         -0.752249        2.000000        0.72898272        0.03364301        0.03319899        0.03022747        0.03867807        0.03454792        0.00593208        0.03929521        0.00531074
     124         -0.752199        2.000000        0.72729024        0.03977995        0.03977995        0.03977995        0.03185128        0.03185128        0.01458985        0.03185128        0.01458985
     125         -0.751929        2.000000        0.72663148        0.03430090        0.03582960        0.04589033        0.03440816        0.03302943        0.01159815        0.03461765        0.01263050
     126         -0.751929        2.000000        0.72663148        0.04448780        0.04245393        0.02907911        0.03350036        0.03533325        0.01280043        0.03322163        0.01142821
     127         -0.751929        2.000000        0.72663148        0.03723213        0.03773730        0.04105139        0.03414673        0.03369256        0.01194439        0.03421596        0.01228426
     128         -0.751869        2.000000        0.72102477        0.03756340        0.03801579        0.04109993        0.03846179        0.03658471        0.00915658        0.03873712        0.00926899
     129         -0.751869        2.000000        0.72102477        0.04424609        0.04238720        0.03004583        0.03580125        0.04331248        0.00943667        0.03466989        0.00898890
     130         -0.751869        2.000000        0.72102477        0.03486963        0.03627613        0.04553336        0.03952058        0.03388643        0.00904511        0.04037660        0.00938046
     131         -0.751607        2.000000        0.71115656        0.03792973        0.03792973        0.03792973        0.04536733        0.04536733        0.00692332        0.04536733        0.00692332
     132         -0.751247        2.000000        0.70998889        0.03216714        0.03280981        0.03706306        0.04628771        0.04570222        0.00513436        0.04637618        0.00544055
     133         -0.751247        2.000000        0.70998889        0.03646773        0.03561321        0.02995908        0.04590180        0.04668013        0.00549096        0.04578418        0.00508394
     134         -0.751247        2.000000        0.70998889        0.03340514        0.03361700        0.03501787        0.04617660        0.04598376        0.00523704        0.04620576        0.00533787
     135         -0.751022        2.000000        0.70081387        0.03511977        0.03511977        0.03511977        0.05103516        0.05103516        0.00421513        0.05103516        0.00421513
     136         -0.750789        2.000000        0.71288172        0.04582388        0.02453974        0.03160427        0.04189321        0.04267795        0.00489075        0.04425751        0.00733241
     137         -0.750789        2.000000        0.71288172        0.02215471        0.04343886        0.03637433        0.04399257        0.04320782        0.00733241        0.04162827        0.00489075
     138         -0.750343        2.000000        0.70980581        0.03568760        0.03542273        0.03366095        0.04328266        0.04390089        0.00587784        0.04318971        0.00580909
     139         -0.750343        2.000000        0.70980581        0.03184386        0.03291040        0.04001702        0.04416427        0.04167046        0.00570477        0.04453853        0.00598216
     140         -0.750343        2.000000        0.70980581        0.03723982        0.03643814        0.03109331        0.04292634        0.04480191        0.00594779        0.04264502        0.00573915
     141         -0.750325        2.000000        0.71124895        0.03679969        0.03679969        0.03679969        0.03942195        0.03942195        0.00769211        0.03942195        0.00769211
     142         -0.749892        2.000000        0.70074350        0.03840972        0.03821874        0.03692918        0.04698197        0.04077533        0.00816469        0.04790117        0.00743563
     143         -0.749892        2.000000        0.70074350        0.03711168        0.03736361        0.03908235        0.04286625        0.05113852        0.00731344        0.04165371        0.00828688
     144         -0.749892        2.000000        0.70074350        0.03803624        0.03797529        0.03754611        0.04581026        0.04374463        0.00792235        0.04610359        0.00767797