# Projected DOS for list 2 of 417 atoms, at iteration step i = 0, E(Fermi) =    -0.460514 a.u.
#     MO Eigenvalue [a.u.]      Occupation                 s                py                pz                px               d-2               d-1                d0               d+1               d+2
       1         -0.771623        2.000000        0.50565001        0.00079682        0.00072544        0.00068847        0.00022375        0.00024072        0.00011393        0.00023358        0.00011871
       2         -0.771091        2.000000        0.46880595        0.00173435        0.00177897        0.00233734        0.00046380        0.00054487        0.00016668        0.00044731        0.00018834
       3         -0.771091        2.000000        0.58126358        0.00313073        0.00289379        0.00090444        0.00062634        0.00044701        0.00024481        0.00065342        0.00017409
       4         -0.771091        2.000000        0.41030136        0.00135191        0.00139928        0.00288830        0.00040800        0.00057243        0.00013959        0.00040609        0.00019948
       5         -0.770088        2.000000        0.46913305        0.00421608        0.00407109        0.00277719        0.00103561        0.00119227        0.00013411        0.00105861        0.00018826
       6         -0.770088        2.000000        0.39925304        0.00244841        0.00264829        0.00588549        0.00112633        0.00115634        0.00017525        0.00117258        0.00014239
       7         -0.770088        2.000000        0.49951636        0.00394838        0.00415020        0.00312848        0.00117020        0.00115725        0.00015499        0.00104749        0.00015872
       8         -0.770056        2.000000        0.49068960        0.00620787        0.00566668        0.00115481        0.00132866        0.00033043        0.00092749        0.00143389        0.00060762
       9         -0.770056        2.000000        0.45298364        0.00239071        0.00267810        0.00672421        0.00067154        0.00164029        0.00055542        0.00059671        0.00087206
      10         -0.768859        2.000000        0.41880505        0.00494820        0.00504726        0.00594400        0.00209568        0.00212917        0.00006036        0.00216109        0.00006305
      11         -0.768603        2.000000        0.44168173        0.00550231        0.00554658        0.00685746        0.00177641        0.00207858        0.00094545        0.00175971        0.00111860
      12         -0.768603        2.000000        0.41901145        0.00711729        0.00678253        0.00444716        0.00207242        0.00173097        0.00107567        0.00215027        0.00100483
      13         -0.768603        2.000000        0.44781680        0.00562398        0.00599952        0.00677237        0.00196344        0.00196157        0.00099228        0.00182394        0.00096242
      14         -0.768569        2.000000        0.44415654        0.00586751        0.00630749        0.00648813        0.00247844        0.00188779        0.00070028        0.00231835        0.00052348
      15         -0.768569        2.000000        0.42459938        0.00548138        0.00583798        0.00562262        0.00178429        0.00242811        0.00049558        0.00162199        0.00068873
      16         -0.768569        2.000000        0.43237512        0.00601115        0.00554956        0.00634334        0.00201524        0.00210275        0.00060324        0.00221788        0.00058263
      17         -0.767814        2.000000        0.51876806        0.00648575        0.00624499        0.00576511        0.00181374        0.00191275        0.00085549        0.00186313        0.00089642
      18         -0.766948        2.000000        0.41287890        0.00658517        0.00685001        0.00926327        0.00335834        0.00361635        0.00047905        0.00346517        0.00056575
      19         -0.766948        2.000000        0.37576314        0.00807941        0.00776317        0.00577373        0.00350240        0.00349471        0.00044823        0.00353446        0.00038122
      20         -0.766948        2.000000        0.38850854        0.00669213        0.00708590        0.00940976        0.00374732        0.00339635        0.00048223        0.00382028        0.00049113
      21         -0.766723        2.000000        0.39769063        0.00841006        0.00830478        0.00829504        0.00330606        0.00349520        0.00159564        0.00327893        0.00165368
      22         -0.766632        2.000000        0.40854128        0.01055135        0.00827676        0.00675197        0.00378615        0.00456986        0.00131114        0.00254366        0.00112629
      23         -0.766632        2.000000        0.37550896        0.00560927        0.00813611        0.01052858        0.00341430        0.00282148        0.00104184        0.00454119        0.00120086
      24         -0.766546        2.000000        0.40473413        0.00838136        0.00835257        0.00733847        0.00307742        0.00307915        0.00148191        0.00316779        0.00171514
      25         -0.766546        2.000000        0.41008809        0.00624083        0.00682933        0.01103196        0.00309683        0.00323103        0.00153817        0.00301352        0.00166051
      26         -0.766546        2.000000        0.44761718        0.00987292        0.01004755        0.00535088        0.00337730        0.00295991        0.00176575        0.00312498        0.00149918
      27         -0.766001        2.000000        0.52464320        0.00959561        0.00974086        0.00985973        0.00360835        0.00393267        0.00187000        0.00345506        0.00194410
      28         -0.766001        2.000000        0.50006226        0.01332252        0.01218261        0.00516413        0.00395313        0.00334060        0.00241396        0.00408282        0.00183983
      29         -0.766001        2.000000        0.41784526        0.00709449        0.00769861        0.01259408        0.00335642        0.00380353        0.00154032        0.00340950        0.00218190
      30         -0.764784        2.000000        0.33747671        0.00895790        0.00909579        0.01044907        0.00560682        0.00548462        0.00069584        0.00585997        0.00068473
      31         -0.764784        2.000000        0.36106080        0.00836564        0.00885897        0.01201859        0.00573556        0.00563673        0.00062832        0.00579826        0.00072927
      32         -0.764784        2.000000        0.35180103        0.00987905        0.00960446        0.00818031        0.00539124        0.00540384        0.00068686        0.00532014        0.00064066
      33         -0.764324        2.000000        0.39415537        0.01299844        0.00660296        0.00947824        0.00462716        0.00496147        0.00072136        0.00611409        0.00194312
      34         -0.764324        2.000000        0.38717003        0.00560041        0.01239622        0.01018914        0.00561388        0.00515401        0.00191370        0.00437860        0.00078112
      35         -0.764167        2.000000        0.41188075        0.01219085        0.01182477        0.00924634        0.00551232        0.00512569        0.00258581        0.00551581        0.00246265
      36         -0.764167        2.000000        0.36434894        0.00907342        0.00965412        0.01122184        0.00520694        0.00566769        0.00153854        0.00510827        0.00198264
      37         -0.764167        2.000000        0.38492858        0.01033421        0.01074519        0.01097580        0.00508369        0.00548122        0.00261837        0.00503325        0.00253665
      38         -0.764103        2.000000        0.38491446        0.00965446        0.00971834        0.01108461        0.00497562        0.00450853        0.00220664        0.00508043        0.00208549
      39         -0.764103        2.000000        0.37050613        0.01148859        0.01150576        0.00895252        0.00495181        0.00548087        0.00218698        0.00476363        0.00200467
      40         -0.764103        2.000000        0.36345693        0.00950298        0.01024903        0.01099266        0.00510132        0.00502636        0.00202634        0.00486292        0.00220236
      41         -0.763748        2.000000        0.40612114        0.01360343        0.01250523        0.01029700        0.00614883        0.00759600        0.00166484        0.00628217        0.00222723
      42         -0.763748        2.000000        0.42057740        0.01114496        0.01171048        0.01369757        0.00701874        0.00462913        0.00260368        0.00718267        0.00221336
      43         -0.763748        2.000000        0.46173603        0.01246876        0.01376228        0.01189458        0.00643099        0.00769214        0.00201325        0.00583800        0.00206005
      44         -0.763065        2.000000        0.41227294        0.00729560        0.01108870        0.02314021        0.00518474        0.00791468        0.00375874        0.00426873        0.00468526
      45         -0.763065        2.000000        0.45937610        0.02255577        0.01692189        0.00471637        0.00628209        0.00402822        0.00533249        0.00758391        0.00410812
      46         -0.762517        2.000000        0.38200357        0.01341212        0.01289165        0.01354712        0.00716870        0.00676402        0.00262928        0.00730676        0.00265093
      47         -0.762014        2.000000        0.34868883        0.01290117        0.01251334        0.01337986        0.00856212        0.00876730        0.00164250        0.00857292        0.00167912
      48         -0.761875        2.000000        0.32043978        0.01029856        0.01101389        0.01166458        0.00822394        0.00727890        0.00126566        0.00885296        0.00114412
      49         -0.761875        2.000000        0.34330075        0.01031433        0.01042701        0.01161052        0.00734345        0.00782724        0.00109055        0.00754271        0.00132672
      50         -0.761875        2.000000        0.32392215        0.01101173        0.01069724        0.01104615        0.00784474        0.00783276        0.00118050        0.00776703        0.00122348
      51         -0.761688        2.000000        0.32203184        0.01017653        0.01058596        0.01217371        0.00726200        0.00792496        0.00150813        0.00720462        0.00169078
      52         -0.761688        2.000000        0.39553349        0.01329036        0.01345056        0.01023745        0.00814056        0.00731604        0.00206240        0.00846784        0.00176068
      53         -0.761688        2.000000        0.30588430        0.00965461        0.00974348        0.01248610        0.00711997        0.00763103        0.00130205        0.00720573        0.00161573
      54         -0.761575        2.000000        0.39203420        0.01431114        0.01444580        0.01457571        0.00956824        0.00964926        0.00199951        0.00993941        0.00204808
      55         -0.761256        2.000000        0.33101849        0.01147889        0.01176282        0.01224606        0.00665090        0.00663201        0.00288957        0.00650411        0.00273880
      56         -0.761090        2.000000        0.35825942        0.01693583        0.01113233        0.00932674        0.00799911        0.00863161        0.00281810        0.00612688        0.00301728
      57         -0.761090        2.000000        0.31798184        0.00656389        0.01283193        0.01518341        0.00653523        0.00658171        0.00279038        0.00812123        0.00265025
      58         -0.760998        2.000000        0.36108718        0.01512011        0.01627232        0.00917877        0.00722871        0.00854315        0.00381761        0.00695735        0.00354272
      59         -0.760998        2.000000        0.32449584        0.00801833        0.00864178        0.01695727        0.00724094        0.00612351        0.00221755        0.00735135        0.00298508
      60         -0.760998        2.000000        0.36591382        0.01499889        0.01416251        0.01039370        0.00757926        0.00764085        0.00364432        0.00735325        0.00317766
      61         -0.760424        2.000000        0.41960934        0.01697060        0.01761342        0.01613974        0.01217704        0.00884451        0.00415462        0.01103705        0.00325442
      62         -0.760424        2.000000        0.38876595        0.01581211        0.01634675        0.01654677        0.00914103        0.01323339        0.00313577        0.00861401        0.00375980
      63         -0.760424        2.000000        0.37654688        0.01609506        0.01487671        0.01616338        0.00983213        0.00943846        0.00345321        0.01101035        0.00351099
      64         -0.760330        2.000000        0.37877525        0.01719717        0.01391089        0.01594961        0.00957354        0.00949539        0.00360429        0.01026500        0.00392795
      65         -0.760330        2.000000        0.38005840        0.01749952        0.01722805        0.01480312        0.00922985        0.01061849        0.00428963        0.00925794        0.00416071
      66         -0.760330        2.000000        0.39058917        0.01457313        0.01727370        0.01749193        0.01085196        0.00953575        0.00392852        0.00981927        0.00374319
      67         -0.758950        2.000000        0.29628143        0.01137905        0.01192539        0.01315717        0.01051374        0.00978182        0.00162728        0.01104736        0.00157742
      68         -0.758950        2.000000        0.28336236        0.01351090        0.01309187        0.01214409        0.01150949        0.01178461        0.00132260        0.01186306        0.00128791
      69         -0.758950        2.000000        0.28581482        0.01074943        0.01109155        0.01439322        0.01059044        0.00989825        0.00150344        0.01052791        0.00171021
      70         -0.758683        2.000000        0.30146855        0.01368184        0.01404288        0.01129906        0.01052804        0.01068377        0.00239590        0.01067772        0.00204355
      71         -0.758683        2.000000        0.26021344        0.00877789        0.00946750        0.01605683        0.00903476        0.00900926        0.00179181        0.00927822        0.00224196
      72         -0.758683        2.000000        0.28337971        0.01276194        0.01234275        0.01189273        0.00962915        0.00986755        0.00216858        0.00991444        0.00218468
      73         -0.758357        2.000000        0.41292422        0.01667782        0.01721337        0.01970706        0.01108611        0.01052921        0.00578753        0.01124676        0.00580379
      74         -0.758357        2.000000        0.42926538        0.02700023        0.02429392        0.00818782        0.01245669        0.01153179        0.00681549        0.01288849        0.00517386
      75         -0.758357        2.000000        0.34811176        0.01255769        0.01360079        0.02321231        0.01005854        0.01090152        0.00477898        0.00930638        0.00668576
      76         -0.758234        2.000000        0.33233696        0.01313753        0.01336234        0.01298835        0.01150031        0.01221807        0.00192366        0.01188002        0.00207184
      77         -0.758222        2.000000        0.31426842        0.01528691        0.00965886        0.01326916        0.01270195        0.01002594        0.00209821        0.00900758        0.00141324
      78         -0.758222        2.000000        0.31976224        0.01013991        0.01633369        0.01235366        0.00854420        0.01103735        0.00134183        0.01274244        0.00208676
      79         -0.757806        2.000000        0.36309927        0.01432903        0.01595711        0.02274086        0.01276570        0.01406912        0.00311135        0.01404058        0.00433720
      80         -0.757806        2.000000        0.35906122        0.02123901        0.01953239        0.01101161        0.01340222        0.01196708        0.00453042        0.01343286        0.00332232
      81         -0.757806        2.000000        0.37655113        0.01760397        0.01744433        0.01932292        0.01465837        0.01450577        0.00367864        0.01380636        0.00368871
      82         -0.757600        2.000000        0.29242298        0.01124328        0.01281650        0.01436379        0.00857250        0.00840664        0.00363629        0.00837211        0.00365379
      83         -0.757600        2.000000        0.34296721        0.01792010        0.01794742        0.01114091        0.01013793        0.01106040        0.00480199        0.00984646        0.00416801
      84         -0.757600        2.000000        0.28264316        0.01107125        0.01060151        0.01487703        0.00850929        0.00803979        0.00317578        0.00845224        0.00348599
      85         -0.757254        2.000000        0.29653564        0.01271342        0.01323147        0.01453639        0.01018377        0.01041100        0.00339073        0.00981444        0.00352438
      86         -0.757254        2.000000        0.35636031        0.01777276        0.01750321        0.01126237        0.01071072        0.01225302        0.00454312        0.01052313        0.00412394
      87         -0.757254        2.000000        0.29057547        0.01118245        0.01177065        0.01571422        0.00955497        0.00966411        0.00315040        0.00976267        0.00366427
      88         -0.756740        2.000000        0.32319457        0.02377381        0.01400760        0.01689668        0.01915284        0.01648743        0.00409768        0.00781924        0.00321170
      89         -0.756740        2.000000        0.32188803        0.01182340        0.02110520        0.02093931        0.00989254        0.01241808        0.00305498        0.02095379        0.00391619
      90         -0.756607        2.000000        0.34231271        0.01916743        0.01807558        0.01953709        0.01449059        0.01486601        0.00488692        0.01423855        0.00496037
      91         -0.756284        2.000000        0.41433514        0.02365995        0.02520800        0.01286406        0.01345999        0.01371607        0.00806297        0.01241868        0.00638602
      92         -0.756284        2.000000        0.34529841        0.01316300        0.01433551        0.02504340        0.01267204        0.01095095        0.00528908        0.01232985        0.00668176
      93         -0.756284        2.000000        0.35441736        0.02127849        0.01875861        0.01589807        0.01248614        0.01335660        0.00642169        0.01283507        0.00698465
      94         -0.755785        2.000000        0.23226046        0.01213575        0.01161275        0.01583577        0.01364703        0.01452412        0.00079266        0.01385362        0.00156913
      95         -0.755785        2.000000        0.22159998        0.01253442        0.01330332        0.01200741        0.01493317        0.01303759        0.00143692        0.01461387        0.00071372
      96         -0.755438        2.000000        0.27551318        0.01516349        0.01392599        0.01377750        0.01412956        0.01401910        0.00200607        0.01463984        0.00192774
      97         -0.755438        2.000000        0.26855792        0.01189794        0.01256866        0.01479569        0.01336924        0.01339136        0.00144873        0.01387041        0.00172824
      98         -0.755438        2.000000        0.28118159        0.01364561        0.01498262        0.01431385        0.01440840        0.01274976        0.00209100        0.01451374        0.00191122
      99         -0.755043        2.000000        0.26050188        0.01386500        0.01349131        0.01453073        0.01366585        0.01439292        0.00205828        0.01406169        0.00240357
     100         -0.755043        2.000000        0.27886463        0.01481737        0.01498824        0.01343455        0.01459005        0.01395104        0.00291373        0.01460845        0.00252274
     101         -0.755043        2.000000        0.26912499        0.01340000        0.01427322        0.01467242        0.01392818        0.01492645        0.00203798        0.01425706        0.00234142
     102         -0.754619        2.000000        0.39402557        0.02114075        0.02368193        0.01684464        0.01681830        0.01851208        0.00500279        0.01572588        0.00443186
     103         -0.754619        2.000000        0.36719162        0.01611237        0.01745274        0.02524586        0.01771858        0.01470900        0.00425025        0.01805106        0.00479207
     104         -0.754619        2.000000        0.33176326        0.02226805        0.02014544        0.01384853        0.01498670        0.01815576        0.00433080        0.01557932        0.00458486
     105         -0.754536        2.000000        0.29634620        0.01375873        0.01477749        0.01533308        0.01437781        0.01418154        0.00282763        0.01465777        0.00267609
     106         -0.754536        2.000000        0.26328560        0.01155354        0.01160085        0.01218387        0.01155674        0.01119562        0.00231505        0.01167859        0.00247074
     107         -0.754536        2.000000        0.27170337        0.01397820        0.01386833        0.01369303        0.01290298        0.01388469        0.00261820        0.01374335        0.00277092
     108         -0.754063        2.000000        0.31650481        0.01980669        0.01849012        0.01704500        0.02287462        0.02284782        0.00207832        0.02221510        0.00186119
     109         -0.754063        2.000000        0.31008077        0.01467451        0.01532023        0.02500734        0.02358849        0.01784475        0.00169125        0.02411152        0.00202308
     110         -0.754063        2.000000        0.31093785        0.01895747        0.01962063        0.01494974        0.01989552        0.02289581        0.00203307        0.02000309        0.00195955
     111         -0.753611        2.000000        0.31520308        0.01581884        0.01527676        0.02251876        0.01320024        0.01530061        0.00488865        0.01338293        0.00677119
     112         -0.753611        2.000000        0.30943996        0.01963177        0.02033126        0.01315241        0.01493200        0.01264578        0.00652250        0.01475616        0.00450903
     113         -0.753595        2.000000        0.28200887        0.01649480        0.01694838        0.01151550        0.01285552        0.01603880        0.00377097        0.01216262        0.00354865
     114         -0.753595        2.000000        0.24017380        0.01108846        0.01162246        0.01752592        0.01270241        0.00972592        0.00330820        0.01310366        0.00361321
     115         -0.753595        2.000000        0.28316410        0.01517201        0.01534688        0.01304540        0.01264863        0.01376956        0.00365088        0.01256136        0.00355017
     116         -0.753030        2.000000        0.30941598        0.01794801        0.01817295        0.01788292        0.01466181        0.01477225        0.00552419        0.01433799        0.00547766
     117         -0.752859        2.000000        0.28815891        0.01728916        0.01696196        0.01682661        0.01226068        0.01251456        0.00503099        0.01596322        0.00567556
     118         -0.752859        2.000000        0.30200763        0.01715206        0.01755564        0.01722667        0.01498018        0.01515705        0.00575700        0.01134884        0.00504262
     119         -0.752456        2.000000        0.37637416        0.04521277        0.01249248        0.01595253        0.01160412        0.01310492        0.00740297        0.01906730        0.01327375
     120         -0.752456        2.000000        0.34964246        0.00504352        0.03445592        0.02927088        0.01617055        0.01550738        0.01311079        0.00976814        0.00668504
     121         -0.752249        2.000000        0.18663349        0.01194103        0.01176543        0.01194986        0.01371485        0.01266936        0.00196863        0.01434377        0.00194090
     122         -0.752249        2.000000        0.20993083        0.01150045        0.01194434        0.01533548        0.01452144        0.01669154        0.00169388        0.01465661        0.00198112
     123         -0.752249        2.000000        0.18868497        0.01201653        0.01245325        0.01117438        0.01392399        0.01198965        0.00199629        0.01411315        0.00182376
     124         -0.752199        2.000000        0.34363286        0.02334508        0.02186704        0.02070634        0.01579935        0.01601683        0.00752979        0.01592517        0.00773273
     125         -0.751929        2.000000        0.31979817        0.01860733        0.01875758        0.02458324        0.01811730        0.01754074        0.00605380        0.01771563        0.00691731
     126         -0.751929        2.000000        0.30077384        0.02316549        0.02179323        0.01509898        0.01730616        0.01786015        0.00650404        0.01696991        0.00586852
     127         -0.751929        2.000000        0.33247740        0.02118792        0.02076267        0.02165542        0.01789005        0.01846335        0.00643605        0.01765455        0.00651988
     128         -0.751869        2.000000        0.31719990        0.02012977        0.02067642        0.02201903        0.02067199        0.02043036        0.00461381        0.01949933        0.00504336
     129         -0.751869        2.000000        0.33168889        0.02514827        0.02443069        0.01706540        0.02025750        0.02244413        0.00554321        0.01953605        0.00482830
     130         -0.751869        2.000000        0.32986015        0.01923791        0.01937039        0.02375333        0.01988309        0.01801280        0.00468657        0.02059402        0.00491219
     131         -0.751607        2.000000        0.33072381        0.02106569        0.02066376        0.02041754        0.02224680        0.02229574        0.00375812        0.02327987        0.00373325
     132         -0.751247        2.000000        0.28933199        0.01396175        0.01417781        0.01569393        0.01905716        0.02024713        0.00225679        0.02031481        0.00264322
     133         -0.751247        2.000000        0.18538983        0.00983193        0.00952475        0.01077667        0.01484036        0.01405403        0.00155202        0.01528036        0.00164888
     134         -0.751247        2.000000        0.28653171        0.01448361        0.01472171        0.01467582        0.02000842        0.02043799        0.00238765        0.02014770        0.00231107
     135         -0.751022        2.000000        0.27396522        0.01730976        0.01768254        0.01807873        0.02529432        0.02409859        0.00202783        0.02520221        0.00204673
     136         -0.750789        2.000000        0.25287852        0.01785644        0.01027996        0.01288607        0.01796563        0.01860236        0.00193257        0.01676760        0.00313470
     137         -0.750789        2.000000        0.24160993        0.00880677        0.01666406        0.01411630        0.01602873        0.01769274        0.00304616        0.01775043        0.00207898
     138         -0.750343        2.000000        0.22349453        0.01384917        0.01374286        0.01332900        0.01727702        0.01747853        0.00224562        0.01610837        0.00211137
     139         -0.750343        2.000000        0.26572156        0.01355181        0.01411171        0.01868908        0.02026701        0.01777874        0.00243370        0.02113632        0.00261079
     140         -0.750343        2.000000        0.21843166        0.01387369        0.01379841        0.01187831        0.01569631        0.01706698        0.00218158        0.01700810        0.00218541
     141         -0.750325        2.000000        0.26633403        0.01440322        0.01469474        0.01466185        0.01392769        0.01381915        0.00352229        0.01427457        0.00342517
     142         -0.749892        2.000000        0.28874851        0.01923603        0.02055351        0.01983697        0.02474918        0.02234775        0.00385394        0.02519982        0.00353943
     143         -0.749892        2.000000        0.29617453        0.01945299        0.01959387        0.02054485        0.02256868        0.02183715        0.00442962        0.02196650        0.00453427
     144         -0.749892        2.000000        0.28607079        0.02036924        0.01935305        0.01924585        0.02279982        0.02334005        0.00371294        0.02235570        0.00382350