# Projected DOS for list 1 of 397 atoms, at iteration step i = 0, E(Fermi) =    -0.460514 a.u.
#     MO Eigenvalue [a.u.]      Occupation                 s                py                pz                px               d-2               d-1                d0               d+1               d+2
       1         -0.771623        2.000000        0.10992488        0.00198546        0.00198849        0.00199538        0.00060663        0.00060752        0.00002692        0.00060643        0.00002697
       2         -0.771091        2.000000        0.12425803        0.00218879        0.00222399        0.00246321        0.00081413        0.00087084        0.00008706        0.00080576        0.00009147
       3         -0.771091        2.000000        0.12578027        0.00269557        0.00255957        0.00164129        0.00089564        0.00067240        0.00009861        0.00092926        0.00008101
       4         -0.771091        2.000000        0.12408615        0.00198013        0.00209280        0.00279990        0.00078296        0.00095367        0.00008261        0.00075630        0.00009608
       5         -0.770088        2.000000        0.15321560        0.00302912        0.00293581        0.00233450        0.00134879        0.00136418        0.00017041        0.00134726        0.00015686
       6         -0.770088        2.000000        0.15264106        0.00241129        0.00254996        0.00339601        0.00136025        0.00134792        0.00015389        0.00136081        0.00017108
       7         -0.770088        2.000000        0.15274265        0.00285242        0.00282095        0.00262076        0.00135583        0.00136037        0.00016462        0.00135305        0.00016140
       8         -0.770056        2.000000        0.13298575        0.00333701        0.00317485        0.00155212        0.00128132        0.00094124        0.00039149        0.00131425        0.00025512
       9         -0.770056        2.000000        0.13330922        0.00204095        0.00220400        0.00382222        0.00107588        0.00141432        0.00025640        0.00104259        0.00039261
      10         -0.768859        2.000000        0.17819053        0.00333594        0.00335146        0.00339793        0.00202252        0.00203485        0.00022283        0.00201582        0.00022497
      11         -0.768603        2.000000        0.15992532        0.00300208        0.00310753        0.00381684        0.00178986        0.00186078        0.00049629        0.00178080        0.00056007
      12         -0.768603        2.000000        0.16091202        0.00370879        0.00358447        0.00266914        0.00183583        0.00175507        0.00056612        0.00184233        0.00048491
      13         -0.768603        2.000000        0.16002217        0.00320505        0.00323980        0.00347455        0.00180166        0.00182476        0.00051634        0.00179848        0.00053575
      14         -0.768569        2.000000        0.17578164        0.00341084        0.00340020        0.00347433        0.00226962        0.00206109        0.00042354        0.00230061        0.00039744
      15         -0.768569        2.000000        0.17648379        0.00346451        0.00344408        0.00335419        0.00213370        0.00240047        0.00039357        0.00209370        0.00042757
      16         -0.768569        2.000000        0.17560943        0.00340788        0.00342534        0.00343373        0.00222985        0.00215727        0.00041993        0.00224018        0.00040786
      17         -0.767814        2.000000        0.10073479        0.00117893        0.00118021        0.00118431        0.00075557        0.00075670        0.00011119        0.00075499        0.00011117
      18         -0.766948        2.000000        0.20405288        0.00398940        0.00407306        0.00440175        0.00323713        0.00318267        0.00046736        0.00323145        0.00051125
      19         -0.766948        2.000000        0.20355832        0.00434718        0.00427169        0.00385929        0.00320027        0.00327770        0.00052138        0.00317839        0.00046482
      20         -0.766948        2.000000        0.20529214        0.00410852        0.00411126        0.00427080        0.00320419        0.00319340        0.00047992        0.00321355        0.00049436
      21         -0.766723        2.000000        0.18273626        0.00369426        0.00369636        0.00371962        0.00226425        0.00227704        0.00089203        0.00226213        0.00089307
      22         -0.766632        2.000000        0.21410484        0.00466178        0.00403740        0.00367551        0.00317184        0.00348827        0.00072642        0.00263287        0.00073345
      23         -0.766632        2.000000        0.21218221        0.00361797        0.00421279        0.00458110        0.00303472        0.00270944        0.00073970        0.00357657        0.00072634
      24         -0.766546        2.000000        0.17247767        0.00450678        0.00446560        0.00400861        0.00296598        0.00303048        0.00089447        0.00295104        0.00085866
      25         -0.766546        2.000000        0.17268486        0.00356154        0.00382713        0.00556997        0.00305966        0.00277715        0.00079543        0.00310088        0.00094623
      26         -0.766546        2.000000        0.17326932        0.00489448        0.00469665        0.00338086        0.00291674        0.00313054        0.00092680        0.00288626        0.00081450
      27         -0.766001        2.000000        0.12630353        0.00136914        0.00138870        0.00151292        0.00117838        0.00117813        0.00026957        0.00117725        0.00028844
      28         -0.766001        2.000000        0.12673481        0.00163414        0.00156345        0.00108949        0.00118007        0.00118912        0.00031705        0.00117755        0.00024122
      29         -0.766001        2.000000        0.12616009        0.00126199        0.00132034        0.00168962        0.00117945        0.00117687        0.00025062        0.00117701        0.00030782
      30         -0.764784        2.000000        0.24810632        0.00491458        0.00485339        0.00469102        0.00437332        0.00433685        0.00074097        0.00436336        0.00072286
      31         -0.764784        2.000000        0.25267733        0.00452301        0.00463004        0.00541417        0.00433611        0.00449660        0.00068783        0.00429737        0.00078228
      32         -0.764784        2.000000        0.24869015        0.00501963        0.00494477        0.00446757        0.00435381        0.00428637        0.00076511        0.00436205        0.00069830
      33         -0.764324        2.000000        0.18360493        0.00706232        0.00430034        0.00532758        0.00444405        0.00480771        0.00060775        0.00543875        0.00109040
      34         -0.764324        2.000000        0.18242807        0.00405804        0.00686196        0.00578291        0.00537038        0.00497751        0.00110422        0.00437983        0.00062206
      35         -0.764167        2.000000        0.19463216        0.00440800        0.00421273        0.00465873        0.00363529        0.00364095        0.00102386        0.00364165        0.00108995
      36         -0.764167        2.000000        0.19179900        0.00473911        0.00483513        0.00369476        0.00365666        0.00360499        0.00112638        0.00364477        0.00099488
      37         -0.764167        2.000000        0.19347626        0.00412452        0.00424177        0.00490602        0.00363713        0.00365076        0.00103084        0.00364595        0.00109657
      38         -0.764103        2.000000        0.21956024        0.00517544        0.00522118        0.00563803        0.00432603        0.00384230        0.00121917        0.00438485        0.00123066
      39         -0.764103        2.000000        0.22208282        0.00557645        0.00550007        0.00493993        0.00399896        0.00462675        0.00123439        0.00391367        0.00120614
      40         -0.764103        2.000000        0.21991260        0.00528895        0.00530559        0.00544021        0.00422718        0.00409434        0.00121656        0.00424576        0.00122988
      41         -0.763748        2.000000        0.16457901        0.00228169        0.00229080        0.00233742        0.00225597        0.00274456        0.00045079        0.00217827        0.00048088
      42         -0.763748        2.000000        0.16478566        0.00232687        0.00231886        0.00227704        0.00257871        0.00194123        0.00048608        0.00267854        0.00044634
      43         -0.763748        2.000000        0.16396105        0.00229471        0.00229746        0.00231919        0.00234558        0.00251123        0.00046076        0.00232126        0.00047043
      44         -0.763065        2.000000        0.13128308        0.00097718        0.00130954        0.00224304        0.00117443        0.00185861        0.00061823        0.00093162        0.00079335
      45         -0.763065        2.000000        0.13142639        0.00204147        0.00171073        0.00077439        0.00146852        0.00078362        0.00079155        0.00171128        0.00061784
      46         -0.762517        2.000000        0.18638278        0.00307328        0.00307642        0.00313125        0.00362940        0.00363790        0.00067085        0.00357974        0.00067198
      47         -0.762014        2.000000        0.24078461        0.00382428        0.00380483        0.00383230        0.00482802        0.00483431        0.00076961        0.00481881        0.00078063
      48         -0.761875        2.000000        0.25738674        0.00677607        0.00673272        0.00617454        0.00643403        0.00593446        0.00085593        0.00644055        0.00081251
      49         -0.761875        2.000000        0.25413651        0.00628701        0.00629554        0.00705987        0.00607544        0.00667656        0.00081696        0.00606098        0.00085750
      50         -0.761875        2.000000        0.25451555        0.00663902        0.00659746        0.00639531        0.00628836        0.00616095        0.00084687        0.00636474        0.00083778
      51         -0.761688        2.000000        0.22991701        0.00609065        0.00613076        0.00643008        0.00599874        0.00631160        0.00129711        0.00595307        0.00134147
      52         -0.761688        2.000000        0.23291205        0.00675221        0.00658309        0.00544425        0.00648854        0.00528257        0.00142134        0.00662996        0.00121188
      53         -0.761688        2.000000        0.23018635        0.00583482        0.00598844        0.00689227        0.00582414        0.00679337        0.00124334        0.00568482        0.00142026
      54         -0.761575        2.000000        0.18739815        0.00195898        0.00196033        0.00197998        0.00340729        0.00342017        0.00027529        0.00340045        0.00027500
      55         -0.761256        2.000000        0.25094268        0.00738441        0.00738026        0.00738025        0.00534344        0.00535676        0.00148837        0.00534131        0.00149140
      56         -0.761090        2.000000        0.21909558        0.00941760        0.00550537        0.00481651        0.00504768        0.00491554        0.00170338        0.00581131        0.00186504
      57         -0.761090        2.000000        0.21895576        0.00374397        0.00769158        0.00834231        0.00548340        0.00561279        0.00186699        0.00470724        0.00171085
      58         -0.760998        2.000000        0.22939425        0.00639969        0.00615844        0.00471094        0.00524426        0.00594971        0.00176665        0.00514318        0.00158752
      59         -0.760998        2.000000        0.22488259        0.00491107        0.00522258        0.00713173        0.00572318        0.00479839        0.00156053        0.00582624        0.00179811
      60         -0.760998        2.000000        0.22940261        0.00598135        0.00589133        0.00541462        0.00538842        0.00559621        0.00171553        0.00536097        0.00164470
      61         -0.760424        2.000000        0.16792119        0.00214453        0.00209992        0.00186493        0.00278951        0.00196112        0.00056843        0.00292495        0.00047641
      62         -0.760424        2.000000        0.16926972        0.00190026        0.00194455        0.00225671        0.00224300        0.00334338        0.00045989        0.00208302        0.00058375
      63         -0.760424        2.000000        0.16785041        0.00206574        0.00206616        0.00197719        0.00263818        0.00235919        0.00053844        0.00267368        0.00051063
      64         -0.760330        2.000000        0.17426561        0.00220034        0.00220886        0.00227690        0.00282312        0.00310046        0.00074627        0.00278190        0.00071042
      65         -0.760330        2.000000        0.17673388        0.00226057        0.00224990        0.00218926        0.00301241        0.00266935        0.00070548        0.00306160        0.00075400
      66         -0.760330        2.000000        0.17432456        0.00221719        0.00222075        0.00224549        0.00287596        0.00296512        0.00073422        0.00285981        0.00072251
      67         -0.758950        2.000000        0.29576300        0.00708691        0.00712394        0.00751615        0.00839417        0.00839666        0.00108784        0.00842587        0.00108509
      68         -0.758950        2.000000        0.29336449        0.00780221        0.00755367        0.00636158        0.00841254        0.00849084        0.00106289        0.00834252        0.00111944
      69         -0.758950        2.000000        0.29168061        0.00687792        0.00703851        0.00787583        0.00851361        0.00838413        0.00110663        0.00849076        0.00106818
      70         -0.758683        2.000000        0.28903068        0.00820659        0.00792076        0.00597067        0.00709291        0.00600567        0.00182212        0.00726009        0.00170753
      71         -0.758683        2.000000        0.28598180        0.00621616        0.00662803        0.00923397        0.00638772        0.00783959        0.00168826        0.00616365        0.00184991
      72         -0.758683        2.000000        0.28763648        0.00763114        0.00766719        0.00688348        0.00694450        0.00652454        0.00179315        0.00699118        0.00176581
      73         -0.758357        2.000000        0.15617148        0.00163234        0.00165706        0.00181105        0.00285096        0.00290297        0.00086223        0.00284594        0.00093591
      74         -0.758357        2.000000        0.15687610        0.00197249        0.00187745        0.00125346        0.00293149        0.00269759        0.00103633        0.00298618        0.00075814
      75         -0.758357        2.000000        0.15612185        0.00149722        0.00157058        0.00203872        0.00281616        0.00299128        0.00079084        0.00279028        0.00100956
      76         -0.758234        2.000000        0.21094306        0.00724642        0.00721633        0.00727061        0.00918241        0.00924850        0.00130960        0.00919123        0.00130987
      77         -0.758222        2.000000        0.25204858        0.00781407        0.00799531        0.00782519        0.01016386        0.00941373        0.00117368        0.00898341        0.00122989
      78         -0.758222        2.000000        0.25418466        0.00802869        0.00773203        0.00793130        0.00884910        0.00962745        0.00124130        0.01009321        0.00117167
      79         -0.757806        2.000000        0.17903864        0.00197729        0.00206083        0.00250708        0.00379620        0.00366605        0.00060083        0.00379621        0.00075192
      80         -0.757806        2.000000        0.17923929        0.00244609        0.00234987        0.00174824        0.00370802        0.00387549        0.00077263        0.00368257        0.00057638
      81         -0.757806        2.000000        0.17945997        0.00211011        0.00213369        0.00229410        0.00375980        0.00372624        0.00064993        0.00377043        0.00069808
      82         -0.757600        2.000000        0.26417980        0.00814744        0.00820019        0.00854270        0.00699543        0.00675229        0.00201058        0.00703230        0.00205843
      83         -0.757600        2.000000        0.26698074        0.00893023        0.00869111        0.00730668        0.00665005        0.00767039        0.00213738        0.00650465        0.00194223
      84         -0.757600        2.000000        0.26398574        0.00784407        0.00802159        0.00905704        0.00716783        0.00642479        0.00196194        0.00724813        0.00211156
      85         -0.757254        2.000000        0.23017796        0.00731668        0.00739412        0.00794214        0.00732850        0.00727889        0.00222557        0.00734525        0.00225330
      86         -0.757254        2.000000        0.23091945        0.00849910        0.00816203        0.00595141        0.00725636        0.00743412        0.00231553        0.00723201        0.00215563
      87         -0.757254        2.000000        0.22949280        0.00682680        0.00707247        0.00874232        0.00734042        0.00726630        0.00217521        0.00735715        0.00229560
      88         -0.756740        2.000000        0.21964066        0.00258957        0.00352097        0.00332273        0.00575207        0.00496078        0.00074144        0.00174129        0.00053874
      89         -0.756740        2.000000        0.22050848        0.00372021        0.00276607        0.00295917        0.00253488        0.00333483        0.00053679        0.00658961        0.00073933
      90         -0.756607        2.000000        0.17258477        0.00216164        0.00215987        0.00218203        0.00368885        0.00372126        0.00081461        0.00368848        0.00081474
      91         -0.756284        2.000000        0.17367928        0.00298540        0.00287972        0.00219644        0.00250267        0.00235148        0.00108560        0.00253023        0.00109262
      92         -0.756284        2.000000        0.17080268        0.00229149        0.00243042        0.00333867        0.00240397        0.00260428        0.00109241        0.00237300        0.00108507
      93         -0.756284        2.000000        0.17304490        0.00278475        0.00276157        0.00252643        0.00248215        0.00242641        0.00108739        0.00248062        0.00109593
      94         -0.755785        2.000000        0.37110192        0.00681791        0.00600772        0.01049602        0.00666289        0.01389142        0.00124319        0.00800514        0.00177164
      95         -0.755785        2.000000        0.36487861        0.00872144        0.00956049        0.00505950        0.01235990        0.00515533        0.00177227        0.01106204        0.00125696
      96         -0.755438        2.000000        0.28894989        0.00836171        0.00828637        0.00783208        0.01037378        0.01098192        0.00109605        0.01035848        0.00113369
      97         -0.755438        2.000000        0.29434048        0.00795089        0.00798745        0.00870866        0.01088236        0.01022197        0.00113320        0.01088376        0.00108523
      98         -0.755438        2.000000        0.29073524        0.00839165        0.00821440        0.00805387        0.01057130        0.01068239        0.00110305        0.01059247        0.00111904
      99         -0.755043        2.000000        0.29417037        0.00702525        0.00720152        0.00832647        0.00863216        0.01086913        0.00153652        0.00829507        0.00167835
     100         -0.755043        2.000000        0.29491981        0.00817133        0.00794443        0.00644319        0.01007074        0.00715023        0.00171352        0.01051493        0.00151481
     101         -0.755043        2.000000        0.29408010        0.00734139        0.00739283        0.00784900        0.00901827        0.00984900        0.00158322        0.00890600        0.00163920
     102         -0.754619        2.000000        0.16962235        0.00266058        0.00264304        0.00258293        0.00525537        0.00569957        0.00091605        0.00519565        0.00088794
     103         -0.754619        2.000000        0.16701300        0.00256117        0.00256154        0.00281937        0.00589183        0.00410407        0.00084945        0.00622049        0.00098635
     104         -0.754619        2.000000        0.16998749        0.00270123        0.00267773        0.00249849        0.00499161        0.00635149        0.00094623        0.00479835        0.00085853
     105         -0.754536        2.000000        0.26165353        0.00924656        0.00918234        0.00903583        0.01155714        0.01116036        0.00154821        0.01166254        0.00150467
     106         -0.754536        2.000000        0.25896844        0.00905262        0.00905929        0.00918802        0.01129396        0.01171612        0.00150140        0.01123218        0.00152654
     107         -0.754536        2.000000        0.26181931        0.00916968        0.00914230        0.00908899        0.01145742        0.01147403        0.00151535        0.01145138        0.00152189
     108         -0.754063        2.000000        0.19333463        0.00323687        0.00323035        0.00318907        0.00633524        0.00641343        0.00037974        0.00632462        0.00037791
     109         -0.754063        2.000000        0.19321678        0.00314804        0.00317263        0.00334088        0.00645651        0.00613526        0.00037239        0.00653792        0.00039837
     110         -0.754063        2.000000        0.19321091        0.00327729        0.00326016        0.00312658        0.00628958        0.00652851        0.00038350        0.00627959        0.00037243
     111         -0.753611        2.000000        0.22152504        0.00551848        0.00554584        0.00610799        0.00478461        0.00751223        0.00169006        0.00496454        0.00171067
     112         -0.753611        2.000000        0.21736165        0.00587123        0.00593541        0.00528503        0.00674864        0.00394538        0.00170274        0.00651236        0.00168639
     113         -0.753595        2.000000        0.28880577        0.01067744        0.01028400        0.00769322        0.01007952        0.00965642        0.00219098        0.01014384        0.00211165
     114         -0.753595        2.000000        0.28792310        0.00808950        0.00858391        0.01203630        0.00981597        0.01044585        0.00209755        0.00971708        0.00220778
     115         -0.753595        2.000000        0.28810995        0.00991989        0.00979678        0.00893897        0.01000141        0.00985896        0.00216090        0.01001891        0.00213523
     116         -0.753030        2.000000        0.20382003        0.00607492        0.00608542        0.00608226        0.00776940        0.00774673        0.00262069        0.00774905        0.00261716
     117         -0.752859        2.000000        0.23561532        0.00671306        0.00815516        0.00806879        0.00565887        0.00580474        0.00224311        0.00796724        0.00209403
     118         -0.752859        2.000000        0.23552708        0.00856484        0.00712391        0.00720393        0.00726969        0.00712131        0.00209339        0.00497885        0.00224903
     119         -0.752456        2.000000        0.13821307        0.00236430        0.00101759        0.00119535        0.00197133        0.00206677        0.00127169        0.00268579        0.00228369
     120         -0.752456        2.000000        0.13789072        0.00068676        0.00203519        0.00185645        0.00251070        0.00241658        0.00228355        0.00179783        0.00127180
     121         -0.752249        2.000000        0.40446603        0.01080525        0.01076530        0.01047159        0.01266560        0.01205057        0.00232861        0.01283915        0.00227158
     122         -0.752249        2.000000        0.40245676        0.01027997        0.01038693        0.01130168        0.01163763        0.01445781        0.00215686        0.01129196        0.00244127
     123         -0.752249        2.000000        0.41020074        0.01094937        0.01083791        0.01023812        0.01303775        0.01101239        0.00239624        0.01341375        0.00221226
     124         -0.752199        2.000000        0.14503452        0.00361897        0.00361890        0.00362814        0.00523899        0.00526529        0.00174625        0.00524685        0.00174726
     125         -0.751929        2.000000        0.19202628        0.00308255        0.00323137        0.00395154        0.00407415        0.00390745        0.00113237        0.00407697        0.00112771
     126         -0.751929        2.000000        0.19250863        0.00384497        0.00370730        0.00268303        0.00395814        0.00414474        0.00110156        0.00392317        0.00113694
     127         -0.751929        2.000000        0.19439958        0.00331243        0.00334093        0.00360652        0.00401853        0.00400107        0.00112335        0.00408656        0.00111407
     128         -0.751869        2.000000        0.18499841        0.00277466        0.00278743        0.00291003        0.00411486        0.00380650        0.00079172        0.00416198        0.00077263
     129         -0.751869        2.000000        0.18794724        0.00303456        0.00295830        0.00247496        0.00366516        0.00492929        0.00074403        0.00347888        0.00081988
     130         -0.751869        2.000000        0.18492054        0.00267170        0.00271951        0.00308132        0.00429078        0.00334338        0.00081040        0.00444534        0.00075360
     131         -0.751607        2.000000        0.16656118        0.00281007        0.00279882        0.00280902        0.00660347        0.00658835        0.00071362        0.00657239        0.00071868
     132         -0.751247        2.000000        0.26483336        0.00973425        0.01020613        0.01237350        0.01396931        0.01383765        0.00152410        0.01398766        0.00153221
     133         -0.751247        2.000000        0.26256146        0.01211418        0.01159873        0.00862850        0.01391965        0.01415495        0.00151201        0.01389790        0.00152096
     134         -0.751247        2.000000        0.26494083        0.01040042        0.01051304        0.01128096        0.01391074        0.01390905        0.00152960        0.01391560        0.00152367
     135         -0.751022        2.000000        0.23752764        0.00475663        0.00473380        0.00472355        0.00858335        0.00852302        0.00062153        0.00852846        0.00062225
     136         -0.750789        2.000000        0.28773389        0.01410107        0.00719267        0.00951079        0.00981435        0.01159223        0.00146978        0.01497125        0.00192583
     137         -0.750789        2.000000        0.28889849        0.00641912        0.01340618        0.01101391        0.01443206        0.01267181        0.00191935        0.00930121        0.00148047
     138         -0.750343        2.000000        0.29995336        0.01046672        0.01043037        0.01018114        0.01262832        0.01278218        0.00176883        0.01262430        0.00174756
     139         -0.750343        2.000000        0.30054693        0.00997069        0.01020649        0.01098643        0.01302685        0.01216609        0.00173702        0.01299724        0.00178734
     140         -0.750343        2.000000        0.30095404        0.01065438        0.01051937        0.00985331        0.01249532        0.01305536        0.00177919        0.01241622        0.00172850
     141         -0.750325        2.000000        0.26338422        0.01125497        0.01122060        0.01123455        0.01455660        0.01465662        0.00161403        0.01453005        0.00161995
     142         -0.749892        2.000000        0.22202108        0.00418891        0.00409922        0.00367569        0.00657289        0.00468291        0.00088942        0.00696469        0.00083896
     143         -0.749892        2.000000        0.21979072        0.00378288        0.00381765        0.00438228        0.00531516        0.00785423        0.00083114        0.00499937        0.00089348
     144         -0.749892        2.000000        0.21910046        0.00404613        0.00404645        0.00387627        0.00622435        0.00559238        0.00086993        0.00630312        0.00087197