# Projected DOS for list 1 of 419 atoms, at iteration step i = 0, E(Fermi) =    -0.451904 a.u.
#     MO Eigenvalue [a.u.]      Occupation                 s                py                pz                px               d-2               d-1                d0               d+1               d+2
       1         -0.763812        2.000000        0.14398178        0.00215996        0.00215996        0.00215996        0.00064998        0.00064998        0.00010764        0.00064998        0.00010764
       2         -0.762636        2.000000        0.19096388        0.00308663        0.00288273        0.00288429        0.00119982        0.00119992        0.00027199        0.00121315        0.00029659
       3         -0.762636        2.000000        0.19102134        0.00268089        0.00308767        0.00308509        0.00121322        0.00121305        0.00030880        0.00118662        0.00025978
       4         -0.762636        2.000000        0.19102066        0.00308612        0.00288325        0.00288427        0.00119985        0.00119992        0.00027208        0.00121312        0.00029650
       5         -0.760772        2.000000        0.20878484        0.00326730        0.00454015        0.00481519        0.00227821        0.00248850        0.00082421        0.00130500        0.00061925
       6         -0.760772        2.000000        0.20885835        0.00514779        0.00387494        0.00359990        0.00176960        0.00155931        0.00061925        0.00274281        0.00082421
       7         -0.760628        2.000000        0.26488773        0.00358760        0.00397193        0.00397044        0.00241973        0.00242007        0.00062722        0.00250698        0.00057314
       8         -0.760628        2.000000        0.26487181        0.00435088        0.00358653        0.00359256        0.00250722        0.00250585        0.00054619        0.00233370        0.00065417
       9         -0.760628        2.000000        0.26479532        0.00359149        0.00397151        0.00396697        0.00241983        0.00242086        0.00062713        0.00250610        0.00057323
      10         -0.758974        2.000000        0.21008906        0.00254675        0.00254675        0.00254675        0.00188582        0.00188582        0.00032524        0.00188582        0.00032524
      11         -0.758145        2.000000        0.27000854        0.00620614        0.00532739        0.00533414        0.00332314        0.00332701        0.00122769        0.00382657        0.00136843
      12         -0.758145        2.000000        0.26989429        0.00444314        0.00621817        0.00620636        0.00383346        0.00382669        0.00144006        0.00281657        0.00115606
      13         -0.758145        2.000000        0.27003568        0.00621839        0.00532212        0.00532717        0.00332012        0.00332302        0.00122643        0.00383358        0.00136969
      14         -0.757920        2.000000        0.31506000        0.00432713        0.00432713        0.00432713        0.00417821        0.00417821        0.00080419        0.00417821        0.00080419
      15         -0.757792        2.000000        0.29997325        0.00536504        0.00542043        0.00542009        0.00439288        0.00438964        0.00102067        0.00385492        0.00101127
      16         -0.757792        2.000000        0.30004260        0.00547593        0.00536447        0.00536515        0.00384940        0.00385607        0.00100651        0.00493198        0.00102543
      17         -0.757792        2.000000        0.30010258        0.00536459        0.00542066        0.00542031        0.00439517        0.00439173        0.00102073        0.00385054        0.00101121
      18         -0.755622        2.000000        0.26449895        0.00350280        0.00313565        0.00313822        0.00375402        0.00375331        0.00062458        0.00365295        0.00069488
      19         -0.755622        2.000000        0.26457527        0.00277345        0.00350400        0.00349922        0.00365261        0.00365393        0.00072963        0.00385374        0.00058983
      20         -0.755622        2.000000        0.26458840        0.00350043        0.00313702        0.00313923        0.00375365        0.00375304        0.00062497        0.00365360        0.00069448
      21         -0.754715        2.000000        0.33219162        0.00647318        0.00810239        0.00810258        0.00622010        0.00622018        0.00175832        0.00549463        0.00162432
      22         -0.754715        2.000000        0.33210059        0.00965975        0.00649751        0.00652089        0.00550547        0.00551588        0.00156030        0.00691356        0.00182234
      23         -0.754715        2.000000        0.33185487        0.00654522        0.00807825        0.00805468        0.00620934        0.00619885        0.00175534        0.00552671        0.00162730
      24         -0.754435        2.000000        0.27182949        0.00757875        0.00757875        0.00757875        0.00565950        0.00565950        0.00206882        0.00565950        0.00206882
      25         -0.754307        2.000000        0.34120956        0.00605096        0.00568532        0.00568790        0.00680839        0.00680660        0.00097528        0.00655482        0.00097914
      26         -0.754307        2.000000        0.34113656        0.00532451        0.00605220        0.00604746        0.00655395        0.00655724        0.00098105        0.00705862        0.00097336
      27         -0.754307        2.000000        0.34121451        0.00604871        0.00568665        0.00568882        0.00680747        0.00680597        0.00097530        0.00655638        0.00097912
      28         -0.754148        2.000000        0.32074666        0.00723174        0.00751447        0.00758087        0.00548741        0.00527279        0.00183771        0.00640118        0.00187482
      29         -0.754148        2.000000        0.32071656        0.00765298        0.00737025        0.00730385        0.00595351        0.00616813        0.00187482        0.00503974        0.00183771
      30         -0.751444        2.000000        0.33024900        0.00472061        0.00538569        0.00538179        0.00696660        0.00697253        0.00090107        0.00797857        0.00087289
      31         -0.751444        2.000000        0.33022939        0.00604783        0.00471525        0.00472501        0.00798673        0.00797188        0.00085870        0.00595909        0.00091525
      32         -0.751444        2.000000        0.33014655        0.00471965        0.00538715        0.00538129        0.00696437        0.00697329        0.00090116        0.00798004        0.00087280
      33         -0.751287        2.000000        0.23183352        0.00202999        0.00384233        0.00423511        0.00512129        0.00558062        0.00093646        0.00300185        0.00075896
      34         -0.751287        2.000000        0.23203784        0.00470830        0.00289595        0.00250318        0.00401455        0.00355522        0.00075896        0.00613399        0.00093646
      35         -0.750334        2.000000        0.41455242        0.00599087        0.01011751        0.01104587        0.01099165        0.01198390        0.00161512        0.00658101        0.00139631
      36         -0.750334        2.000000        0.41478864        0.01211197        0.00798532        0.00705696        0.00871272        0.00772047        0.00139631        0.01312336        0.00161512
      37         -0.750135        2.000000        0.38286313        0.01043648        0.00969054        0.00969645        0.00847976        0.00847759        0.00230273        0.00820645        0.00227161
      38         -0.750135        2.000000        0.38278829        0.00895286        0.01044036        0.01043026        0.00820503        0.00820873        0.00225617        0.00875004        0.00231816
      39         -0.750135        2.000000        0.38257304        0.01043413        0.00969257        0.00969677        0.00847902        0.00847748        0.00230260        0.00820731        0.00227173
      40         -0.750030        2.000000        0.33093980        0.01070217        0.00895209        0.00897471        0.00763250        0.00764591        0.00247778        0.00866989        0.00260576
      41         -0.750030        2.000000        0.33110020        0.00718295        0.01073382        0.01071220        0.00868865        0.00867584        0.00267073        0.00658381        0.00241281
      42         -0.750030        2.000000        0.33120911        0.01074385        0.00894306        0.00894206        0.00762715        0.00762655        0.00247680        0.00869460        0.00260674
      43         -0.749703        2.000000        0.23845138        0.00238709        0.00238709        0.00238709        0.00658672        0.00658672        0.00060292        0.00658672        0.00060292
      44         -0.749635        2.000000        0.33912550        0.00717321        0.00749285        0.00749162        0.00967615        0.00967717        0.00108442        0.00994252        0.00106756
      45         -0.749635        2.000000        0.33913723        0.00780741        0.00717261        0.00717766        0.00994302        0.00993881        0.00105917        0.00941401        0.00109281
      46         -0.749635        2.000000        0.33895103        0.00717706        0.00749222        0.00748840        0.00967667        0.00967986        0.00108437        0.00993931        0.00106761
      47         -0.747369        2.000000        0.35043364        0.00538789        0.00538789        0.00538789        0.01047015        0.01047015        0.00053602        0.01047015        0.00053602
      48         -0.746777        2.000000        0.27687924        0.00699773        0.00623726        0.00624436        0.00762527        0.00763308        0.00147856        0.00846165        0.00166674
      49         -0.746777        2.000000        0.27653963        0.00546688        0.00701141        0.00700106        0.00847669        0.00846530        0.00176324        0.00677800        0.00138206
      50         -0.746777        2.000000        0.27698811        0.00701473        0.00623068        0.00623394        0.00761804        0.00762161        0.00147614        0.00848034        0.00166915
      51         -0.745777        2.000000        0.51835818        0.01105572        0.01189413        0.01188875        0.01341019        0.01340238        0.00197321        0.01219257        0.00188401
      52         -0.745777        2.000000        0.51839329        0.01273379        0.01104683        0.01105797        0.01217967        0.01219584        0.00183885        0.01462963        0.00201837
      53         -0.745777        2.000000        0.51843717        0.01104909        0.01189763        0.01189188        0.01341528        0.01340692        0.00197377        0.01218294        0.00188346
      54         -0.745326        2.000000        0.29624329        0.00365991        0.00398813        0.00398604        0.00925620        0.00924276        0.00074830        0.00714831        0.00071593
      55         -0.745326        2.000000        0.29630103        0.00431723        0.00365634        0.00366052        0.00712534        0.00715220        0.00069953        0.01136973        0.00076471
      56         -0.745326        2.000000        0.29637501        0.00365694        0.00398962        0.00398753        0.00926573        0.00925230        0.00074852        0.00712923        0.00071572
      57         -0.744914        2.000000        0.35662496        0.00988249        0.01288656        0.01287188        0.01140403        0.01139515        0.00242705        0.00958768        0.00246112
      58         -0.744914        2.000000        0.35652490        0.01587210        0.00986361        0.00990522        0.00957626        0.00960142        0.00247822        0.01320918        0.00240994
      59         -0.744914        2.000000        0.35638276        0.00988634        0.01289076        0.01286383        0.01140657        0.01139029        0.00242698        0.00959001        0.00246119
      60         -0.744701        2.000000        0.46754930        0.01219377        0.01219377        0.01219377        0.01043997        0.01043997        0.00289161        0.01043997        0.00289161
      61         -0.744684        2.000000        0.37317077        0.01166640        0.01044907        0.01045748        0.01262153        0.01262521        0.00165393        0.01315430        0.00181950
      62         -0.744684        2.000000        0.37286956        0.00922813        0.01168061        0.01166421        0.01316052        0.01315334        0.00190346        0.01208718        0.00156997
      63         -0.744684        2.000000        0.37329460        0.01167841        0.01044327        0.01045126        0.01261899        0.01262249        0.00165275        0.01315956        0.00182067
      64         -0.744429        2.000000        0.36183415        0.00758014        0.01442220        0.01595239        0.01218571        0.01302300        0.00387911        0.00844186        0.00348905
      65         -0.744429        2.000000        0.36187037        0.01772302        0.01088096        0.00935076        0.01024800        0.00941071        0.00348905        0.01399185        0.00387911
      66         -0.743557        2.000000        0.24043098        0.00402487        0.00373965        0.00374163        0.00933431        0.00932418        0.00086913        0.00787975        0.00093577
      67         -0.743557        2.000000        0.24082529        0.00345833        0.00402576        0.00402205        0.00787518        0.00789413        0.00096871        0.01076893        0.00083619
      68         -0.743557        2.000000        0.24082433        0.00402294        0.00374073        0.00374246        0.00932875        0.00931993        0.00086951        0.00788956        0.00093539
      69         -0.743413        2.000000        0.24030280        0.01108567        0.01108567        0.01108567        0.01403886        0.01403886        0.00095644        0.01403886        0.00095644
      70         -0.741493        2.000000        0.28017748        0.00739896        0.00682165        0.00682578        0.01347187        0.01346073        0.00043970        0.01191536        0.00045242
      71         -0.741493        2.000000        0.28017904        0.00625137        0.00740119        0.00739383        0.01190935        0.01192921        0.00045873        0.01500940        0.00043340
      72         -0.741493        2.000000        0.28017761        0.00739606        0.00682355        0.00682678        0.01346674        0.01345803        0.00043976        0.01192320        0.00045236
      73         -0.741219        2.000000        0.31282953        0.00671824        0.00854512        0.00854335        0.01109105        0.01109121        0.00158346        0.01125099        0.00154694
      74         -0.741219        2.000000        0.31332206        0.01033830        0.00672251        0.00674590        0.01125062        0.01124857        0.00152886        0.01093407        0.00160154
      75         -0.741219        2.000000        0.31351506        0.00675018        0.00853908        0.00851745        0.01109158        0.01109347        0.00158328        0.01124819        0.00154712
      76         -0.740684        2.000000        0.24071264        0.01049064        0.01049064        0.01049064        0.01086046        0.01086046        0.00228511        0.01086046        0.00228511
      77         -0.739459        2.000000        0.40162276        0.01312989        0.01275950        0.01276200        0.01634022        0.01635981        0.00166138        0.01923988        0.00172171
      78         -0.739459        2.000000        0.40209342        0.01239454        0.01313084        0.01312600        0.01924737        0.01920945        0.00175151        0.01348310        0.00163159
      79         -0.739459        2.000000        0.40207656        0.01312696        0.01276104        0.01276338        0.01635232        0.01637066        0.00166175        0.01921694        0.00172134
      80         -0.739314        2.000000        0.38744683        0.00973183        0.01027977        0.01040760        0.01349549        0.01258424        0.00159053        0.01740165        0.00187989
      81         -0.739314        2.000000        0.38734982        0.01054763        0.00999969        0.00987187        0.01549210        0.01640334        0.00187989        0.01158594        0.00159053
      82         -0.739283        2.000000        0.37449029        0.01207780        0.01413564        0.01412278        0.01677438        0.01676389        0.00187643        0.01509577        0.00176242
      83         -0.739283        2.000000        0.37446322        0.01615528        0.01207610        0.01210484        0.01509439        0.01511783        0.00170633        0.01842183        0.00193251
      84         -0.739283        2.000000        0.37432158        0.01210314        0.01412448        0.01410860        0.01676528        0.01675233        0.00187551        0.01511644        0.00176334
      85         -0.738784        2.000000        0.26668386        0.00985378        0.01236557        0.01299792        0.01573809        0.01562499        0.00113040        0.01618733        0.00137441
      86         -0.738784        2.000000        0.26631186        0.01362440        0.01111261        0.01048026        0.01596218        0.01607528        0.00137441        0.01551294        0.00113040
      87         -0.738365        2.000000        0.44662342        0.01708136        0.01477286        0.01479051        0.01375961        0.01376235        0.00311779        0.01411758        0.00299771
      88         -0.738365        2.000000        0.44669949        0.01245161        0.01711220        0.01708091        0.01412237        0.01411752        0.00293665        0.01339966        0.00317885
      89         -0.738365        2.000000        0.44676469        0.01711175        0.01475966        0.01477331        0.01375757        0.01375968        0.00311881        0.01412230        0.00299669
      90         -0.738125        2.000000        0.34746221        0.01737886        0.01476457        0.01479357        0.01455326        0.01457361        0.00352477        0.01638712        0.00348307
      91         -0.738125        2.000000        0.34747984        0.01209892        0.01743661        0.01740147        0.01642763        0.01640298        0.00346153        0.01268339        0.00354631
      92         -0.738125        2.000000        0.34714317        0.01745922        0.01473582        0.01474196        0.01453310        0.01453740        0.00352546        0.01644348        0.00348239
      93         -0.737938        2.000000        0.29674934        0.00889671        0.00889671        0.00889671        0.01120808        0.01120808        0.00253077        0.01120808        0.00253077
      94         -0.737238        2.000000        0.42700490        0.00748044        0.01233497        0.01340774        0.01788420        0.01896324        0.00154195        0.01300133        0.00111584
      95         -0.737238        2.000000        0.42751546        0.01466832        0.00981380        0.00874102        0.01534831        0.01426927        0.00111584        0.02023118        0.00154195
      96         -0.736667        2.000000        0.22725653        0.00577598        0.00560138        0.00560242        0.01046319        0.01048671        0.00064219        0.01438703        0.00059357
      97         -0.736667        2.000000        0.22722330        0.00542720        0.00577753        0.00577506        0.01442173        0.01436627        0.00056905        0.00654893        0.00066670
      98         -0.736667        2.000000        0.22683000        0.00577660        0.00560088        0.00560230        0.01045201        0.01048394        0.00064239        0.01440097        0.00059336
      99         -0.736472        2.000000        0.23472660        0.00263443        0.00491770        0.00540435        0.00962719        0.01056268        0.00141926        0.00523799        0.00120457
     100         -0.736472        2.000000        0.23488367        0.00600323        0.00371995        0.00323331        0.00732472        0.00638923        0.00120457        0.01171392        0.00141926
     101         -0.735870        2.000000        0.13148436        0.00672961        0.00736031        0.00735626        0.01111917        0.01112415        0.00044627        0.01189384        0.00044463
     102         -0.735870        2.000000        0.13148519        0.00798067        0.00672856        0.00673695        0.01189513        0.01188483        0.00044383        0.01035721        0.00044708
     103         -0.735870        2.000000        0.13148535        0.00673590        0.00735731        0.00735298        0.01112286        0.01112818        0.00044626        0.01188612        0.00044465
     104         -0.735500        2.000000        0.18171660        0.00637171        0.00637171        0.00637171        0.01250860        0.01250860        0.00042238        0.01250860        0.00042238
     105         -0.735292        2.000000        0.14839197        0.00326001        0.00326001        0.00326001        0.00721458        0.00721458        0.00072240        0.00721458        0.00072240
     106         -0.734443        2.000000        0.32076501        0.01137446        0.01187841        0.01187483        0.01680114        0.01679866        0.00189755        0.01645196        0.00187618
     107         -0.734443        2.000000        0.32076498        0.01237562        0.01137272        0.01137936        0.01645076        0.01645536        0.00186561        0.01714564        0.00190812
     108         -0.734443        2.000000        0.32076716        0.01137763        0.01187657        0.01187350        0.01679986        0.01679774        0.00189743        0.01645416        0.00187630
     109         -0.734053        2.000000        0.31499584        0.00809367        0.00822003        0.00821917        0.01340596        0.01339470        0.00164681        0.01175768        0.00158097
     110         -0.734053        2.000000        0.31498822        0.00834450        0.00809334        0.00809503        0.01175339        0.01177542        0.00154846        0.01502951        0.00167932
     111         -0.734053        2.000000        0.31494285        0.00809470        0.00821949        0.00821867        0.01339898        0.01338821        0.00164640        0.01177114        0.00158139
     112         -0.733294        2.000000        0.36985264        0.01189050        0.01415296        0.01413622        0.01796006        0.01794278        0.00258932        0.01562438        0.00243168
     113         -0.733294        2.000000        0.36929365        0.01642285        0.01186253        0.01189430        0.01559550        0.01562831        0.00235169        0.02030341        0.00266931
     114         -0.733294        2.000000        0.36925426        0.01186633        0.01416419        0.01414915        0.01797166        0.01795613        0.00259049        0.01559943        0.00243051
     115         -0.733215        2.000000        0.21229838        0.01032615        0.01613813        0.01745276        0.02091128        0.02202081        0.00093021        0.01600604        0.00076018
     116         -0.733215        2.000000        0.21233384        0.01895188        0.01313990        0.01182526        0.01838081        0.01727127        0.00076018        0.02328605        0.00093021
     117         -0.732536        2.000000        0.28964645        0.01439518        0.01544772        0.01544068        0.02105154        0.02104528        0.00167213        0.02011568        0.00159146
     118         -0.732536        2.000000        0.28937577        0.01648378        0.01439282        0.01440697        0.02011358        0.02012616        0.00155166        0.02197275        0.00171193
     119         -0.732536        2.000000        0.28875156        0.01440461        0.01544304        0.01543592        0.02104738        0.02104105        0.00167160        0.02012406        0.00159200
     120         -0.732431        2.000000        0.25498140        0.01539023        0.01339869        0.01341648        0.01857039        0.01857891        0.00118689        0.01952377        0.00123092
     121         -0.732431        2.000000        0.25481250        0.01139159        0.01542148        0.01539234        0.01953873        0.01952478        0.00125337        0.01760957        0.00116443
     122         -0.732431        2.000000        0.25476880        0.01542359        0.01338524        0.01339658        0.01856396        0.01856939        0.00118645        0.01953973        0.00123136
     123         -0.732401        2.000000        0.35394564        0.01337879        0.01423897        0.01423316        0.02071439        0.02070378        0.00176417        0.01914365        0.00178659
     124         -0.732401        2.000000        0.35397894        0.01510130        0.01336906        0.01338056        0.01912588        0.01914687        0.00179795        0.02228907        0.00175281
     125         -0.732401        2.000000        0.35398455        0.01337082        0.01424289        0.01423720        0.02072156        0.02071117        0.00176402        0.01912910        0.00178674
     126         -0.730750        2.000000        0.36737033        0.01973614        0.01973614        0.01973614        0.02014276        0.02014276        0.00578135        0.02014276        0.00578135
     127         -0.730748        2.000000        0.43984044        0.01013754        0.01762936        0.01907108        0.01387768        0.01409573        0.00421094        0.01274457        0.00400479
     128         -0.730748        2.000000        0.43981060        0.02108778        0.01359596        0.01215424        0.01326764        0.01304959        0.00400479        0.01440075        0.00421094
     129         -0.730733        2.000000        0.27588527        0.01385190        0.01218312        0.01219521        0.01762911        0.01763574        0.00199123        0.01854454        0.00223891
     130         -0.730733        2.000000        0.27522673        0.01050815        0.01387244        0.01384965        0.01855580        0.01854330        0.00236462        0.01671028        0.00186552
     131         -0.730733        2.000000        0.27608705        0.01387018        0.01217468        0.01218537        0.01762448        0.01763034        0.00198936        0.01855457        0.00224078
     132         -0.730395        2.000000        0.35098424        0.01430904        0.01884012        0.01882070        0.01815283        0.01814767        0.00285267        0.01694934        0.00298803
     133         -0.730395        2.000000        0.35113667        0.02333927        0.01428504        0.01434556        0.01694296        0.01695904        0.00305591        0.01934784        0.00278479
     134         -0.730395        2.000000        0.35123252        0.01432156        0.01884470        0.01880360        0.01815405        0.01814313        0.00285247        0.01695266        0.00298823
     135         -0.729574        2.000000        0.23535158        0.00745883        0.00666976        0.00667550        0.01135649        0.01134729        0.00160032        0.01008935        0.00195960
     136         -0.729574        2.000000        0.23567497        0.00589108        0.00746177        0.00745125        0.01008463        0.01010153        0.00213734        0.01260696        0.00142258
     137         -0.729574        2.000000        0.23564531        0.00745418        0.00667256        0.00667735        0.01135200        0.01134431        0.00160222        0.01009682        0.00195770
     138         -0.728359        2.000000        0.25786189        0.01135831        0.01090971        0.01091253        0.01720467        0.01719286        0.00097998        0.01532434        0.00090497
     139         -0.728359        2.000000        0.25798536        0.01046063        0.01136292        0.01135699        0.01530502        0.01532987        0.00086702        0.01908699        0.00101794
     140         -0.728359        2.000000        0.25810885        0.01136161        0.01090791        0.01091103        0.01721218        0.01719914        0.00098043        0.01531054        0.00090452
     141         -0.728057        2.000000        0.25681360        0.01170086        0.01334900        0.01373918        0.01992103        0.02051309        0.00152278        0.01742017        0.00128972
     142         -0.728057        2.000000        0.25687813        0.01415850        0.01251036        0.01212018        0.01864850        0.01805644        0.00128972        0.02114935        0.00152278
     143         -0.727482        2.000000        0.44728628        0.01352030        0.01352030        0.01352030        0.01722473        0.01722473        0.00185700        0.01722473        0.00185700
     144         -0.727380        2.000000        0.35180867        0.01264821        0.01268077        0.01268059        0.01767097        0.01767042        0.00237934        0.01757235        0.00222993