# Projected DOS for atomic kind Si at iteration step i = 0, E(Fermi) =    -0.451904 a.u.
#     MO Eigenvalue [a.u.]      Occupation                 s                py                pz                px               d-2               d-1                d0               d+1               d+2
       1         -0.763812        2.000000        0.97609237        0.00361384        0.00361384        0.00361384        0.00089801        0.00089801        0.00014255        0.00089801        0.00014255
       2         -0.762636        2.000000        0.95369044        0.00952776        0.00705217        0.00707115        0.00240217        0.00240395        0.00055954        0.00263466        0.00066012
       3         -0.762636        2.000000        0.95369044        0.00460175        0.00954034        0.00950898        0.00263584        0.00263290        0.00071003        0.00217204        0.00050964
       4         -0.762636        2.000000        0.95369044        0.00952156        0.00705857        0.00707095        0.00240277        0.00240393        0.00055993        0.00263408        0.00065974
       5         -0.760772        2.000000        0.92752597        0.00572829        0.01523558        0.01728995        0.00502971        0.00571791        0.00255405        0.00184485        0.00174850
       6         -0.760772        2.000000        0.92752597        0.01977426        0.01026697        0.00821259        0.00336527        0.00267707        0.00174850        0.00655013        0.00255405
       7         -0.760628        2.000000        0.91932235        0.01124607        0.01431651        0.01430458        0.00601893        0.00602097        0.00120999        0.00654467        0.00121933
       8         -0.760628        2.000000        0.91932235        0.01734395        0.01123751        0.01128570        0.00654613        0.00653788        0.00122399        0.00550055        0.00120534
       9         -0.760628        2.000000        0.91932235        0.01127714        0.01431314        0.01427689        0.00601951        0.00602571        0.00121001        0.00653935        0.00121932
      10         -0.758974        2.000000        0.90551306        0.01618042        0.01618042        0.01618042        0.00802527        0.00802527        0.00207147        0.00802527        0.00207147
      11         -0.758145        2.000000        0.89031311        0.02133865        0.01659474        0.01663120        0.00742841        0.00743799        0.00381870        0.00867504        0.00441079
      12         -0.758145        2.000000        0.89031311        0.01182121        0.02140357        0.02133981        0.00869210        0.00867535        0.00471212        0.00617399        0.00351737
      13         -0.758145        2.000000        0.89031311        0.02140473        0.01656628        0.01659357        0.00742093        0.00742810        0.00381342        0.00869241        0.00441608
      14         -0.757920        2.000000        0.88185072        0.01824357        0.01824357        0.01824357        0.01182703        0.01182703        0.00133318        0.01182703        0.00133318
      15         -0.757792        2.000000        0.88015853        0.01949391        0.01895714        0.01896037        0.01140680        0.01139604        0.00286510        0.00961949        0.00253964
      16         -0.757792        2.000000        0.88015853        0.01841922        0.01949943        0.01949277        0.00960113        0.00962330        0.00237485        0.01319791        0.00302989
      17         -0.757792        2.000000        0.88015853        0.01949828        0.01895485        0.01895828        0.01141441        0.01140299        0.00286716        0.00960493        0.00253758
      18         -0.755622        2.000000        0.85450344        0.02677771        0.02080677        0.02084864        0.01528823        0.01528439        0.00351035        0.01474071        0.00395184
      19         -0.755622        2.000000        0.85450344        0.01491631        0.02679731        0.02671950        0.01473892        0.01474605        0.00417013        0.01582837        0.00329206
      20         -0.755622        2.000000        0.85450344        0.02673910        0.02082904        0.02086498        0.01528619        0.01528289        0.00351280        0.01474425        0.00394939
      21         -0.754715        2.000000        0.84568951        0.01926528        0.02589303        0.02589377        0.01399426        0.01399428        0.00577206        0.01382209        0.00535879
      22         -0.754715        2.000000        0.84568951        0.03222844        0.01936426        0.01945938        0.01382466        0.01382713        0.00516134        0.01415883        0.00596951
      23         -0.754715        2.000000        0.84568951        0.01955835        0.02579479        0.02569893        0.01399171        0.01398922        0.00576287        0.01382971        0.00536798
      24         -0.754435        2.000000        0.84604879        0.02452812        0.02452812        0.02452812        0.01232505        0.01232505        0.00810580        0.01232505        0.00810580
      25         -0.754307        2.000000        0.83305690        0.02551269        0.02323968        0.02325572        0.01963048        0.01963315        0.00229846        0.02000933        0.00253187
      26         -0.754307        2.000000        0.83305690        0.02099667        0.02552046        0.02549096        0.02001063        0.02000571        0.00264730        0.01925662        0.00218303
      27         -0.754307        2.000000        0.83305690        0.02549873        0.02324795        0.02326141        0.01963186        0.01963410        0.00229973        0.02000700        0.00253060
      28         -0.754148        2.000000        0.83961316        0.02562305        0.02471323        0.02449953        0.01315100        0.01211756        0.00599736        0.01755097        0.00710754
      29         -0.754148        2.000000        0.83961316        0.02426749        0.02517731        0.02539101        0.01539536        0.01642880        0.00710754        0.01099539        0.00599736
      30         -0.751444        2.000000        0.79974232        0.02411389        0.03061670        0.03057860        0.02359114        0.02361791        0.00405167        0.02816055        0.00415013
      31         -0.751444        2.000000        0.79974232        0.03709084        0.02406144        0.02415690        0.02819741        0.02813033        0.00419968        0.01904187        0.00400212
      32         -0.751444        2.000000        0.79974232        0.02410446        0.03063104        0.03057368        0.02358106        0.02362136        0.00405135        0.02816718        0.00415045
      33         -0.751287        2.000000        0.80107858        0.01932648        0.03315419        0.03615096        0.02510703        0.02712481        0.00885635        0.01579660        0.00632859
      34         -0.751287        2.000000        0.80107858        0.03976127        0.02593356        0.02293679        0.02024526        0.01822748        0.00632859        0.02955569        0.00885635
      35         -0.750334        2.000000        0.79191647        0.01929928        0.03089245        0.03350053        0.02712702        0.02881080        0.00507484        0.01964248        0.00353277
      36         -0.750334        2.000000        0.79191647        0.03649556        0.02490239        0.02229431        0.02325985        0.02157607        0.00353277        0.03074439        0.00507484
      37         -0.750135        2.000000        0.79697776        0.03022604        0.02911762        0.02912640        0.02076751        0.02075382        0.00839023        0.01904106        0.00808623
      38         -0.750135        2.000000        0.79697776        0.02802148        0.03023179        0.03021678        0.01903209        0.01905548        0.00793547        0.02247482        0.00854100
      39         -0.750135        2.000000        0.79697776        0.03022254        0.02912065        0.02912687        0.02076279        0.02075309        0.00838900        0.01904651        0.00808747
      40         -0.750030        2.000000        0.79680042        0.03282859        0.02826179        0.02832082        0.01895310        0.01898125        0.00951280        0.02113116        0.01037031
      41         -0.750030        2.000000        0.79680042        0.02364528        0.03291117        0.03285475        0.02117055        0.02114364        0.01080562        0.01675132        0.00907750
      42         -0.750030        2.000000        0.79680042        0.03293733        0.02823824        0.02823563        0.01894186        0.01894062        0.00950625        0.02118302        0.01037686
      43         -0.749703        2.000000        0.77969482        0.03145006        0.03145006        0.03145006        0.02895204        0.02895204        0.00595477        0.02895204        0.00595477
      44         -0.749635        2.000000        0.77593815        0.02806496        0.02992750        0.02992039        0.03168442        0.03168272        0.00310615        0.03123901        0.00299315
      45         -0.749635        2.000000        0.77593815        0.03176048        0.02806147        0.02809090        0.03123817        0.03124521        0.00293697        0.03212276        0.00316232
      46         -0.749635        2.000000        0.77593815        0.02808741        0.02992387        0.02990157        0.03168355        0.03167822        0.00310582        0.03124438        0.00299347
      47         -0.747369        2.000000        0.74123081        0.03047061        0.03047061        0.03047061        0.04229658        0.04229658        0.00208064        0.04229658        0.00208064
      48         -0.746777        2.000000        0.75634243        0.03879636        0.03117414        0.03124531        0.02866510        0.02867453        0.00979968        0.02967463        0.01119878
      49         -0.746777        2.000000        0.75634243        0.02345272        0.03893343        0.03882966        0.02969279        0.02967904        0.01191630        0.02764243        0.00908215
      50         -0.746777        2.000000        0.75634243        0.03896673        0.03110824        0.03114083        0.02865637        0.02866069        0.00978170        0.02969720        0.01121675
      51         -0.745777        2.000000        0.74829849        0.03029708        0.03083328        0.03082984        0.03306061        0.03304735        0.00498672        0.03099213        0.00460178
      52         -0.745777        2.000000        0.74829849        0.03137028        0.03029140        0.03029852        0.03097022        0.03099769        0.00440690        0.03513219        0.00518159
      53         -0.745777        2.000000        0.74829849        0.03029284        0.03083552        0.03083184        0.03306926        0.03305506        0.00498912        0.03097578        0.00459938
      54         -0.745326        2.000000        0.73034322        0.03531565        0.03391377        0.03392271        0.04304362        0.04300295        0.00455359        0.03666426        0.00401112
      55         -0.745326        2.000000        0.73034322        0.03250813        0.03533093        0.03531306        0.03659475        0.03667604        0.00373622        0.04944004        0.00482849
      56         -0.745326        2.000000        0.73034322        0.03532834        0.03390743        0.03391636        0.04307246        0.04303184        0.00455725        0.03660653        0.00400746
      57         -0.744914        2.000000        0.74909645        0.03007158        0.03730151        0.03726617        0.02725234        0.02724364        0.01280844        0.02547154        0.01196540
      58         -0.744914        2.000000        0.74909645        0.04448684        0.03002613        0.03012629        0.02546035        0.02548502        0.01154213        0.02902215        0.01323172
      59         -0.744914        2.000000        0.74909645        0.03008084        0.03731162        0.03724680        0.02725483        0.02723887        0.01281020        0.02547382        0.01196365
      60         -0.744701        2.000000        0.74799646        0.03466010        0.03466010        0.03466010        0.02672191        0.02672191        0.01025136        0.02672191        0.01025136
      61         -0.744684        2.000000        0.73459492        0.03761231        0.03152911        0.03157114        0.03551425        0.03553505        0.00588526        0.03852352        0.00695225
      62         -0.744684        2.000000        0.73459492        0.02542791        0.03768330        0.03760135        0.03855864        0.03851810        0.00749332        0.03249608        0.00534419
      63         -0.744684        2.000000        0.73459492        0.03767234        0.03150015        0.03154007        0.03549993        0.03551968        0.00587769        0.03855322        0.00695982
      64         -0.744429        2.000000        0.74585193        0.01947210        0.04111301        0.04595290        0.02876038        0.03032778        0.01482565        0.02175194        0.01205301
      65         -0.744429        2.000000        0.74585193        0.05155324        0.02991233        0.02507244        0.02513302        0.02356562        0.01205301        0.03214146        0.01482565
      66         -0.743557        2.000000        0.71543577        0.04232714        0.03394315        0.03400152        0.04399131        0.04396604        0.00645397        0.04036055        0.00728114
      67         -0.743557        2.000000        0.71543577        0.02567404        0.04235351        0.04224426        0.04034913        0.04039644        0.00769002        0.04757233        0.00604509
      68         -0.743557        2.000000        0.71543577        0.04227063        0.03397515        0.03402603        0.04397746        0.04395542        0.00645867        0.04038502        0.00727643
      69         -0.743413        2.000000        0.70430907        0.03457129        0.03457129        0.03457129        0.05229747        0.05229747        0.00269949        0.05229747        0.00269949
      70         -0.741493        2.000000        0.67539997        0.03492824        0.03284479        0.03285971        0.06245405        0.06245083        0.00179854        0.06200443        0.00194708
      71         -0.741493        2.000000        0.67539997        0.03078675        0.03493628        0.03490971        0.06200270        0.06200843        0.00202062        0.06289819        0.00172501
      72         -0.741493        2.000000        0.67539997        0.03491775        0.03285167        0.03286333        0.06245257        0.06245005        0.00179927        0.06200670        0.00194635
      73         -0.741219        2.000000        0.70386144        0.03065670        0.03992279        0.03991381        0.04000161        0.04000699        0.00895860        0.04555273        0.00837184
      74         -0.741219        2.000000        0.70386144        0.04901789        0.03067837        0.03079704        0.04553974        0.04546865        0.00808137        0.03455294        0.00924907
      75         -0.741219        2.000000        0.70386144        0.03081872        0.03989213        0.03978245        0.04001998        0.04008569        0.00895569        0.04545566        0.00837475
      76         -0.740684        2.000000        0.70601034        0.03981945        0.03981945        0.03981945        0.03639511        0.03639511        0.01513643        0.03639511        0.01513643
      77         -0.739459        2.000000        0.68368416        0.03337854        0.03438375        0.03437696        0.05047764        0.05049666        0.00456105        0.05329357        0.00455313
      78         -0.739459        2.000000        0.68368416        0.03537422        0.03337594        0.03338909        0.05330085        0.05326401        0.00454923        0.04770301        0.00456496
      79         -0.739459        2.000000        0.68368416        0.03338649        0.03437956        0.03437320        0.05048939        0.05050719        0.00456100        0.05327129        0.00455318
      80         -0.739314        2.000000        0.68901823        0.03903328        0.03612117        0.03544182        0.04215291        0.03944778        0.00682504        0.05374872        0.00866719
      81         -0.739314        2.000000        0.68901823        0.03469757        0.03760968        0.03828903        0.04808003        0.05078516        0.00866719        0.03648422        0.00682504
      82         -0.739283        2.000000        0.68676985        0.03204509        0.03784268        0.03780647        0.05018955        0.05014999        0.00721265        0.04385580        0.00626829
      83         -0.739283        2.000000        0.68676985        0.04353267        0.03204031        0.03212126        0.04385058        0.04393902        0.00580374        0.05640574        0.00767720
      84         -0.739283        2.000000        0.68676985        0.03211648        0.03781125        0.03776651        0.05015521        0.05010633        0.00720502        0.04393379        0.00627592
      85         -0.738784        2.000000        0.68053437        0.04252252        0.03905172        0.03817793        0.04719771        0.04524434        0.00722075        0.05495672        0.00877058
      86         -0.738784        2.000000        0.68053437        0.03731226        0.04078306        0.04165685        0.05106813        0.05302150        0.00877058        0.04330913        0.00722075
      87         -0.738365        2.000000        0.70081664        0.04263427        0.03820442        0.03823829        0.03297207        0.03297348        0.01384963        0.03315714        0.01419913
      88         -0.738365        2.000000        0.70081664        0.03375011        0.04269346        0.04263341        0.03315961        0.03315710        0.01437685        0.03278598        0.01367191
      89         -0.738365        2.000000        0.70081664        0.04269260        0.03817910        0.03820528        0.03297101        0.03297210        0.01384665        0.03315957        0.01420210
      90         -0.738125        2.000000        0.69157878        0.04304414        0.03872508        0.03877300        0.03745578        0.03750316        0.01363074        0.04172541        0.01449381
      91         -0.738125        2.000000        0.69157878        0.03432117        0.04313955        0.04308149        0.04181972        0.04176233        0.01493942        0.03310229        0.01318513
      92         -0.738125        2.000000        0.69157878        0.04317690        0.03867759        0.03868772        0.03740884        0.03741886        0.01361667        0.04185665        0.01450789
      93         -0.737938        2.000000        0.67694744        0.03925633        0.03925633        0.03925633        0.04787681        0.04787681        0.00990342        0.04787681        0.00990342
      94         -0.737238        2.000000        0.66235534        0.02328806        0.03837362        0.04170730        0.06015987        0.06318424        0.00593563        0.04647399        0.00408900
      95         -0.737238        2.000000        0.66235534        0.04562459        0.03053903        0.02720535        0.05305220        0.05002783        0.00408900        0.06673808        0.00593563
      96         -0.736667        2.000000        0.65297441        0.03644057        0.04267295        0.04263559        0.05607566        0.05616980        0.00410714        0.07178017        0.00425747
      97         -0.736667        2.000000        0.65297441        0.04889012        0.03638546        0.03647353        0.07191904        0.07169710        0.00433327        0.04040949        0.00403134
      98         -0.736667        2.000000        0.65297441        0.03641842        0.04269070        0.04263998        0.05603093        0.05615873        0.00410650        0.07183597        0.00425811
      99         -0.736472        2.000000        0.66406474        0.02764485        0.04768460        0.05195577        0.05541559        0.05966256        0.01256465        0.03548935        0.00907676
     100         -0.736472        2.000000        0.66406474        0.05721196        0.03717221        0.03290105        0.04496275        0.04071578        0.00907676        0.06488898        0.01256465
     101         -0.735870        2.000000        0.61673049        0.03485823        0.03498639        0.03498557        0.08542030        0.08542376        0.00168007        0.08595772        0.00179544
     102         -0.735870        2.000000        0.61673049        0.03511245        0.03485802        0.03485972        0.08595862        0.08595147        0.00185231        0.08489170        0.00162321
     103         -0.735870        2.000000        0.61673049        0.03485951        0.03498578        0.03498490        0.08542286        0.08542655        0.00168089        0.08595237        0.00179463
     104         -0.735500        2.000000        0.62620746        0.03660667        0.03660667        0.03660667        0.07648889        0.07648889        0.00306324        0.07648889        0.00306324
     105         -0.735292        2.000000        0.63019477        0.03943647        0.03943647        0.03943647        0.07235394        0.07235394        0.00580892        0.07235394        0.00580892
     106         -0.734443        2.000000        0.65138334        0.03868873        0.03973438        0.03972696        0.05592473        0.05591298        0.00827998        0.05427065        0.00834478
     107         -0.734443        2.000000        0.65138334        0.04076603        0.03868513        0.03869892        0.05426495        0.05428676        0.00837683        0.05755664        0.00824794
     108         -0.734443        2.000000        0.65138334        0.03869531        0.03973056        0.03972420        0.05591868        0.05590861        0.00828034        0.05428106        0.00834443
     109         -0.734053        2.000000        0.64668055        0.03839369        0.03981356        0.03980386        0.05928520        0.05925422        0.00683916        0.05474922        0.00638872
     110         -0.734053        2.000000        0.64668055        0.04121213        0.03839000        0.03840898        0.05473743        0.05479806        0.00616633        0.06375315        0.00706154
     111         -0.734053        2.000000        0.64668055        0.03840529        0.03980755        0.03979827        0.05926601        0.05923636        0.00683632        0.05478627        0.00639155
     112         -0.733294        2.000000        0.64353013        0.03847141        0.03899088        0.03898704        0.05894253        0.05891044        0.00764634        0.05460388        0.00754225
     113         -0.733294        2.000000        0.64353013        0.03951206        0.03846499        0.03847229        0.05455025        0.05461118        0.00748944        0.06329542        0.00769915
     114         -0.733294        2.000000        0.64353012        0.03846586        0.03899346        0.03899001        0.05896407        0.05893523        0.00764710        0.05455755        0.00754148
     115         -0.733215        2.000000        0.61683929        0.03079637        0.04033333        0.04249054        0.08217912        0.08463823        0.00278526        0.07130743        0.00215143
     116         -0.733215        2.000000        0.61683929        0.04495045        0.03541349        0.03325629        0.07657073        0.07411162        0.00215143        0.08744243        0.00278526
     117         -0.732536        2.000000        0.63271834        0.03868582        0.04093369        0.04091865        0.06353852        0.06352813        0.00808773        0.06198540        0.00751551
     118         -0.732536        2.000000        0.63271833        0.04314640        0.03868077        0.03871100        0.06198192        0.06200281        0.00723319        0.06506734        0.00837005
     119         -0.732536        2.000000        0.63271832        0.03870594        0.04092370        0.04090851        0.06353163        0.06352113        0.00808394        0.06199932        0.00751930
     120         -0.732431        2.000000        0.62140897        0.04064464        0.03836122        0.03838162        0.07044624        0.07048215        0.00535049        0.07446510        0.00556186
     121         -0.732431        2.000000        0.62140897        0.03605995        0.04068047        0.04064706        0.07452815        0.07446935        0.00566967        0.06639598        0.00524267
     122         -0.732431        2.000000        0.62140898        0.04068289        0.03834579        0.03835879        0.07041910        0.07044198        0.00534836        0.07453240        0.00556399
     123         -0.732401        2.000000        0.62233519        0.03821772        0.03728866        0.03729493        0.07129607        0.07127357        0.00443801        0.06796436        0.00432801
     124         -0.732401        2.000000        0.62233518        0.03635726        0.03822823        0.03821581        0.06792667        0.06797120        0.00427225        0.07463616        0.00449376
     125         -0.732401        2.000000        0.62233517        0.03822633        0.03728442        0.03729056        0.07131128        0.07128925        0.00443876        0.06793350        0.00432726
     126         -0.730750        2.000000        0.64792839        0.04418488        0.04418488        0.04418488        0.04572722        0.04572722        0.01650612        0.04572722        0.01650612
     127         -0.730748        2.000000        0.65159088        0.02856591        0.05040481        0.05460746        0.04077922        0.04074925        0.01745226        0.04093493        0.01525250
     128         -0.730748        2.000000        0.65159088        0.06048621        0.03864731        0.03444465        0.04086305        0.04089301        0.01525250        0.04070733        0.01745226
     129         -0.730733        2.000000        0.62327008        0.04798521        0.03839157        0.03846111        0.06353133        0.06355227        0.00661272        0.06642045        0.00791312
     130         -0.730733        2.000000        0.62327008        0.02876240        0.04810324        0.04797226        0.06645600        0.06641655        0.00857310        0.06063150        0.00595273
     131         -0.730733        2.000000        0.62327008        0.04809028        0.03834308        0.03840453        0.06351673        0.06353523        0.00660293        0.06645210        0.00792291
     132         -0.730395        2.000000        0.63818583        0.03731504        0.04835123        0.04830393        0.05142322        0.05140997        0.01494366        0.04833012        0.01350833
     133         -0.730395        2.000000        0.63818583        0.05930963        0.03725658        0.03740399        0.04831373        0.04835505        0.01278849        0.05449453        0.01566349
     134         -0.730395        2.000000        0.63818583        0.03734554        0.04836239        0.04826228        0.05142635        0.05139829        0.01494582        0.04833866        0.01350616
     135         -0.729574        2.000000        0.61926046        0.05236348        0.04100468        0.04108720        0.06090985        0.06090254        0.01020428        0.05990337        0.01249441
     136         -0.729574        2.000000        0.61926046        0.02979533        0.05240575        0.05225427        0.05989962        0.05991305        0.01362739        0.06190308        0.00907130
     137         -0.729574        2.000000        0.61926046        0.05229654        0.04104492        0.04111389        0.06090628        0.06090017        0.01021636        0.05990930        0.01248232
     138         -0.728359        2.000000        0.60937670        0.04428097        0.04537932        0.04537242        0.07342697        0.07335032        0.00363595        0.06122564        0.00335693
     139         -0.728359        2.000000        0.60937670        0.04647883        0.04426968        0.04428420        0.06110023        0.06126152        0.00321576        0.08564118        0.00377712
     140         -0.728359        2.000000        0.60937669        0.04427291        0.04538371        0.04537609        0.07347573        0.07339109        0.00363761        0.06113611        0.00335527
     141         -0.728057        2.000000        0.59969817        0.03731946        0.04272611        0.04400609        0.07460897        0.07354034        0.00542882        0.07912290        0.00443190
     142         -0.728057        2.000000        0.59969817        0.04538165        0.03997500        0.03869502        0.07690584        0.07797447        0.00443190        0.07239191        0.00542882
     143         -0.727482        2.000000        0.62148348        0.04088376        0.04088376        0.04088376        0.05771375        0.05771375        0.00511645        0.05771375        0.00511645
     144         -0.727380        2.000000        0.60904510        0.03740972        0.04180739        0.04178308        0.06703511        0.06702130        0.00659509        0.06453616        0.00595431