# Projected DOS for list 2 of 309 atoms, at iteration step i = 0, E(Fermi) =    -0.451904 a.u.
#     MO Eigenvalue [a.u.]      Occupation                 s                py                pz                px               d-2               d-1                d0               d+1               d+2
       1         -0.763812        2.000000        0.84217505        0.00145388        0.00145388        0.00145388        0.00024803        0.00024803        0.00003491        0.00024803        0.00003491
       2         -0.762636        2.000000        0.77665117        0.00644113        0.00416944        0.00418686        0.00120235        0.00120403        0.00028756        0.00142151        0.00036353
       3         -0.762636        2.000000        0.77665117        0.00192086        0.00645267        0.00642389        0.00142262        0.00141984        0.00040123        0.00098542        0.00024986
       4         -0.762636        2.000000        0.77665116        0.00643544        0.00417531        0.00418668        0.00120291        0.00120401        0.00028785        0.00142096        0.00036324
       5         -0.760772        2.000000        0.73596885        0.00246099        0.01069543        0.01247476        0.00275150        0.00322941        0.00172984        0.00053985        0.00112925
       6         -0.760772        2.000000        0.73596885        0.01462647        0.00639202        0.00461269        0.00159567        0.00111777        0.00112925        0.00380732        0.00172984
       7         -0.760628        2.000000        0.67422883        0.00765847        0.01034458        0.01033414        0.00359920        0.00360090        0.00058277        0.00403769        0.00064620
       8         -0.760628        2.000000        0.67422883        0.01299307        0.00765099        0.00769314        0.00403891        0.00403203        0.00067780        0.00316685        0.00055117
       9         -0.760628        2.000000        0.67422883        0.00768565        0.01034163        0.01030991        0.00359968        0.00360486        0.00058288        0.00403325        0.00064609
      10         -0.758974        2.000000        0.71307137        0.01363367        0.01363367        0.01363367        0.00613944        0.00613944        0.00174624        0.00613944        0.00174624
      11         -0.758145        2.000000        0.64362004        0.01513250        0.01126735        0.01129706        0.00410527        0.00411098        0.00259101        0.00484847        0.00304236
      12         -0.758145        2.000000        0.64362004        0.00737807        0.01518540        0.01513345        0.00485865        0.00484866        0.00327207        0.00335742        0.00236131
      13         -0.758145        2.000000        0.64362004        0.01518634        0.01124417        0.01126640        0.00410081        0.00410508        0.00258698        0.00485883        0.00304639
      14         -0.757920        2.000000        0.59205822        0.01391644        0.01391644        0.01391644        0.00764882        0.00764882        0.00052899        0.00764882        0.00052899
      15         -0.757792        2.000000        0.60465623        0.01412887        0.01353671        0.01354028        0.00701392        0.00700640        0.00184443        0.00576457        0.00152837
      16         -0.757792        2.000000        0.60465623        0.01294329        0.01413496        0.01412761        0.00575173        0.00576723        0.00136834        0.00826593        0.00200447
      17         -0.757792        2.000000        0.60465623        0.01413370        0.01353419        0.01353797        0.00701924        0.00701126        0.00184644        0.00575439        0.00152637
      18         -0.755622        2.000000        0.61413562        0.02327491        0.01767112        0.01771041        0.01153421        0.01153108        0.00288577        0.01108777        0.00325696
      19         -0.755622        2.000000        0.61413562        0.01214286        0.02329330        0.02322028        0.01108630        0.01109212        0.00344050        0.01197463        0.00270223
      20         -0.755622        2.000000        0.61413562        0.02323867        0.01769202        0.01772575        0.01153254        0.01152985        0.00288783        0.01109065        0.00325490
      21         -0.754715        2.000000        0.54379645        0.01279210        0.01779063        0.01779119        0.00777416        0.00777410        0.00401374        0.00832746        0.00373447
      22         -0.754715        2.000000        0.54379645        0.02256869        0.01286675        0.01293849        0.00831920        0.00831126        0.00360104        0.00724527        0.00414717
      23         -0.754715        2.000000        0.54379644        0.01301313        0.01771655        0.01764425        0.00778236        0.00779037        0.00400753        0.00830299        0.00374068
      24         -0.754435        2.000000        0.60136987        0.01694936        0.01694936        0.01694936        0.00666555        0.00666555        0.00603698        0.00666555        0.00603698
      25         -0.754307        2.000000        0.52264557        0.01946174        0.01755436        0.01756782        0.01282208        0.01282655        0.00132319        0.01345451        0.00155272
      26         -0.754307        2.000000        0.52264557        0.01567216        0.01946826        0.01944350        0.01345667        0.01344846        0.00166625        0.01219800        0.00120967
      27         -0.754307        2.000000        0.52264557        0.01945002        0.01756130        0.01757259        0.01282439        0.01282813        0.00132443        0.01345063        0.00155148
      28         -0.754148        2.000000        0.54849149        0.01839131        0.01719876        0.01691866        0.00766359        0.00684477        0.00415965        0.01114979        0.00523271
      29         -0.754148        2.000000        0.54849149        0.01661451        0.01780706        0.01808716        0.00944185        0.01026066        0.00523271        0.00595565        0.00415965
      30         -0.751444        2.000000        0.50085942        0.01939327        0.02523101        0.02519681        0.01662454        0.01664538        0.00315061        0.02018198        0.00327724
      31         -0.751444        2.000000        0.50085943        0.03104301        0.01934619        0.01943189        0.02021067        0.02015845        0.00334098        0.01308278        0.00308687
      32         -0.751444        2.000000        0.50085943        0.01938481        0.02524389        0.02519239        0.01661669        0.01664807        0.00315019        0.02018714        0.00327766
      33         -0.751287        2.000000        0.59604258        0.01729649        0.02931185        0.03191585        0.01998574        0.02154419        0.00791989        0.01279475        0.00556963
      34         -0.751287        2.000000        0.59604258        0.03505297        0.02303761        0.02043361        0.01623071        0.01467226        0.00556963        0.02342170        0.00791989
      35         -0.750334        2.000000        0.41726727        0.01330841        0.02077493        0.02245466        0.01613537        0.01682690        0.00345972        0.01306148        0.00213645
      36         -0.750334        2.000000        0.41726727        0.02438359        0.01691707        0.01523734        0.01454713        0.01385560        0.00213645        0.01762102        0.00345972
      37         -0.750135        2.000000        0.45162606        0.01978955        0.01942708        0.01942995        0.01228775        0.01227623        0.00608750        0.01083461        0.00581463
      38         -0.750135        2.000000        0.45162606        0.01906863        0.01979143        0.01978652        0.01082706        0.01084674        0.00567930        0.01372478        0.00622283
      39         -0.750135        2.000000        0.45162606        0.01978841        0.01942807        0.01943011        0.01228378        0.01227561        0.00608639        0.01083919        0.00581573
      40         -0.750030        2.000000        0.50042148        0.02212641        0.01930970        0.01934611        0.01132060        0.01133535        0.00703502        0.01246126        0.00776455
      41         -0.750030        2.000000        0.50042148        0.01646233        0.02217735        0.02214255        0.01248189        0.01246780        0.00813489        0.01016752        0.00666468
      42         -0.750030        2.000000        0.50042148        0.02219349        0.01929518        0.01929357        0.01131472        0.01131407        0.00702945        0.01248843        0.00777013
      43         -0.749703        2.000000        0.56831095        0.02906297        0.02906297        0.02906297        0.02236532        0.02236532        0.00535185        0.02236532        0.00535185
      44         -0.749635        2.000000        0.47224346        0.02089175        0.02243466        0.02242876        0.02200827        0.02200555        0.00202172        0.02129649        0.00192559
      45         -0.749635        2.000000        0.47224346        0.02395307        0.02088886        0.02091323        0.02129516        0.02130640        0.00187780        0.02270876        0.00206951
      46         -0.749635        2.000000        0.47224346        0.02091034        0.02243165        0.02241317        0.02200689        0.02199836        0.00202144        0.02130507        0.00192587
      47         -0.747369        2.000000        0.42705748        0.02508271        0.02508271        0.02508271        0.03182642        0.03182642        0.00154462        0.03182642        0.00154462
      48         -0.746777        2.000000        0.51377430        0.03179862        0.02493688        0.02500096        0.02103983        0.02104145        0.00832111        0.02121299        0.00953204
      49         -0.746777        2.000000        0.51377429        0.01798583        0.03192202        0.03182860        0.02121610        0.02121374        0.01015306        0.02086442        0.00770009
      50         -0.746777        2.000000        0.51377429        0.03195200        0.02487756        0.02490690        0.02103833        0.02103908        0.00830556        0.02121686        0.00954760
      51         -0.745777        2.000000        0.28291289        0.01924137        0.01893915        0.01894109        0.01965042        0.01964497        0.00301351        0.01879956        0.00271776
      52         -0.745777        2.000000        0.28291289        0.01863649        0.01924457        0.01924055        0.01879055        0.01880185        0.00256805        0.02050256        0.00316322
      53         -0.745777        2.000000        0.28291290        0.01924376        0.01893789        0.01893996        0.01965398        0.01964814        0.00301535        0.01879284        0.00271592
      54         -0.745326        2.000000        0.46919275        0.03165574        0.02992563        0.02993666        0.03378742        0.03376019        0.00380529        0.02951595        0.00329518
      55         -0.745326        2.000000        0.46919275        0.02819090        0.03167459        0.03165254        0.02946941        0.02952384        0.00303669        0.03807031        0.00406378
      56         -0.745326        2.000000        0.46919275        0.03167140        0.02991781        0.02992883        0.03380673        0.03377953        0.00380873        0.02947729        0.00329174
      57         -0.744914        2.000000        0.43397446        0.02018909        0.02441495        0.02439429        0.01584831        0.01584849        0.01038140        0.01588386        0.00950429
      58         -0.744914        2.000000        0.43397446        0.02861474        0.02016252        0.02022106        0.01588409        0.01588359        0.00906391        0.01581298        0.01082178
      59         -0.744914        2.000000        0.43397446        0.02019450        0.02442086        0.02438297        0.01584826        0.01584858        0.01038323        0.01588382        0.00950246
      60         -0.744701        2.000000        0.32779767        0.02246634        0.02246634        0.02246634        0.01628194        0.01628194        0.00735976        0.01628194        0.00735976
      61         -0.744684        2.000000        0.40353611        0.02594591        0.02108004        0.02111366        0.02289272        0.02290984        0.00423133        0.02536922        0.00513275
      62         -0.744684        2.000000        0.40353612        0.01619978        0.02600270        0.02593714        0.02539812        0.02536476        0.00558986        0.02040890        0.00377422
      63         -0.744684        2.000000        0.40353612        0.02599393        0.02105688        0.02108881        0.02288093        0.02289719        0.00422493        0.02539366        0.00513915
      64         -0.744429        2.000000        0.42387016        0.01189196        0.02669081        0.03000050        0.01657467        0.01730478        0.01094654        0.01331008        0.00856395
      65         -0.744429        2.000000        0.42387016        0.03383022        0.01903137        0.01572168        0.01488502        0.01415491        0.00856395        0.01814961        0.01094654
      66         -0.743557        2.000000        0.50673340        0.03830228        0.03020351        0.03025989        0.03465701        0.03464186        0.00558484        0.03248079        0.00634537
      67         -0.743557        2.000000        0.50673341        0.02221571        0.03832774        0.03822222        0.03247395        0.03250231        0.00672130        0.03680341        0.00520890
      68         -0.743557        2.000000        0.50673341        0.03824769        0.03023442        0.03028357        0.03464870        0.03463550        0.00558917        0.03249546        0.00634104
      69         -0.743413        2.000000        0.49344535        0.02348562        0.02348562        0.02348562        0.03825861        0.03825861        0.00174305        0.03825861        0.00174305
      70         -0.741493        2.000000        0.42851098        0.02752927        0.02602315        0.02603393        0.04898218        0.04899011        0.00135885        0.05008907        0.00149465
      71         -0.741493        2.000000        0.42851098        0.02453539        0.02753509        0.02751588        0.05009335        0.05007923        0.00156189        0.04788878        0.00129161
      72         -0.741493        2.000000        0.42851098        0.02752169        0.02602812        0.02603654        0.04898583        0.04899203        0.00135951        0.05008350        0.00149399
      73         -0.741219        2.000000        0.43306652        0.02393846        0.03137767        0.03137046        0.02891056        0.02891578        0.00737513        0.03430174        0.00682490
      74         -0.741219        2.000000        0.43306652        0.03867959        0.02395586        0.02405113        0.03428912        0.03422008        0.00655251        0.02361887        0.00764752
      75         -0.741219        2.000000        0.43306652        0.02406854        0.03135305        0.03126500        0.02892840        0.02899221        0.00737241        0.03420747        0.00682763
      76         -0.740684        2.000000        0.50029208        0.02932881        0.02932881        0.02932881        0.02553465        0.02553465        0.01285132        0.02553465        0.01285132
      77         -0.739459        2.000000        0.33237868        0.02024865        0.02162425        0.02161496        0.03413741        0.03413685        0.00289967        0.03405369        0.00283142
      78         -0.739459        2.000000        0.33237868        0.02297968        0.02024510        0.02026309        0.03405347        0.03405457        0.00279772        0.03421991        0.00293337
      79         -0.739459        2.000000        0.33237868        0.02025954        0.02161851        0.02160982        0.03413706        0.03413653        0.00289925        0.03405435        0.00283184
      80         -0.739314        2.000000        0.35108624        0.02930145        0.02584140        0.02503423        0.02865742        0.02686354        0.00523451        0.03634708        0.00678731
      81         -0.739314        2.000000        0.35108624        0.02414993        0.02760998        0.02841716        0.03258794        0.03438182        0.00678731        0.02489828        0.00523451
      82         -0.739283        2.000000        0.36012766        0.01996729        0.02370705        0.02368368        0.03341517        0.03338609        0.00533622        0.02876003        0.00450587
      83         -0.739283        2.000000        0.36012766        0.02737739        0.01996421        0.02001643        0.02875619        0.02882119        0.00409741        0.03798391        0.00574468
      84         -0.739283        2.000000        0.36012766        0.02001334        0.02368677        0.02365791        0.03338993        0.03335401        0.00532951        0.02881735        0.00451258
      85         -0.738784        2.000000        0.45012343        0.03266874        0.02668616        0.02518001        0.03145962        0.02961935        0.00609035        0.03876939        0.00739617
      86         -0.738784        2.000000        0.45012343        0.02368787        0.02967045        0.03117659        0.03510595        0.03694622        0.00739617        0.02779619        0.00609035
      87         -0.738365        2.000000        0.30699185        0.02555291        0.02343156        0.02344778        0.01921245        0.01921113        0.01073184        0.01903955        0.01120141
      88         -0.738365        2.000000        0.30699185        0.02129850        0.02558125        0.02555250        0.01903724        0.01903958        0.01144019        0.01938631        0.01049306
      89         -0.738365        2.000000        0.30699185        0.02558084        0.02341944        0.02343198        0.01921344        0.01921242        0.01072784        0.01903727        0.01120541
      90         -0.738125        2.000000        0.38713966        0.02566528        0.02396051        0.02397942        0.02290252        0.02292955        0.01010597        0.02533829        0.01101074
      91         -0.738125        2.000000        0.38713966        0.02222226        0.02570294        0.02568002        0.02539210        0.02535936        0.01147789        0.02041891        0.00963882
      92         -0.738125        2.000000        0.38713966        0.02571768        0.02394177        0.02394577        0.02287574        0.02288146        0.01009121        0.02541316        0.01102550
      93         -0.737938        2.000000        0.42171072        0.03035962        0.03035962        0.03035962        0.03666873        0.03666873        0.00737265        0.03666873        0.00737265
      94         -0.737238        2.000000        0.28911294        0.01580762        0.02603865        0.02829956        0.04227568        0.04422101        0.00439368        0.03347267        0.00297316
      95         -0.737238        2.000000        0.28911294        0.03095627        0.02072523        0.01846433        0.03770389        0.03575856        0.00297316        0.04650690        0.00439368
      96         -0.736667        2.000000        0.45860118        0.03066458        0.03707157        0.03703317        0.04561247        0.04568309        0.00346496        0.05739314        0.00366390
      97         -0.736667        2.000000        0.45860118        0.04346292        0.03060793        0.03069847        0.05749731        0.05733083        0.00376422        0.03386056        0.00336464
      98         -0.736667        2.000000        0.45860118        0.03064182        0.03708982        0.03703768        0.04557892        0.04567479        0.00346411        0.05743500        0.00366475
      99         -0.736472        2.000000        0.46555556        0.02501042        0.04276690        0.04655142        0.04578840        0.04909988        0.01114539        0.03025137        0.00787219
     100         -0.736472        2.000000        0.46555556        0.05120874        0.03345226        0.02966774        0.03763803        0.03432655        0.00787219        0.05317506        0.01114539
     101         -0.735870        2.000000        0.50340178        0.02812862        0.02762608        0.02762931        0.07430113        0.07429961        0.00123380        0.07406388        0.00135081
     102         -0.735870        2.000000        0.50340177        0.02713177        0.02812946        0.02812278        0.07406349        0.07406664        0.00140848        0.07453449        0.00117613
     103         -0.735870        2.000000        0.50340177        0.02812361        0.02762847        0.02763192        0.07430000        0.07429837        0.00123463        0.07406625        0.00134998
     104         -0.735500        2.000000        0.47245347        0.03023496        0.03023496        0.03023496        0.06398029        0.06398029        0.00264086        0.06398029        0.00264086
     105         -0.735292        2.000000        0.50452673        0.03617647        0.03617647        0.03617647        0.06513936        0.06513936        0.00508652        0.06513936        0.00508652
     106         -0.734443        2.000000        0.37834875        0.02731428        0.02785597        0.02785213        0.03912359        0.03911432        0.00638243        0.03781869        0.00646860
     107         -0.734443        2.000000        0.37834875        0.02839041        0.02731241        0.02731955        0.03781420        0.03783140        0.00651122        0.04041100        0.00633982
     108         -0.734443        2.000000        0.37834875        0.02731769        0.02785399        0.02785070        0.03911882        0.03911087        0.00638290        0.03782691        0.00646813
     109         -0.734053        2.000000        0.38047581        0.03030003        0.03159353        0.03158469        0.04587924        0.04585952        0.00519234        0.04299154        0.00480774
     110         -0.734053        2.000000        0.38047581        0.03286763        0.03029666        0.03031395        0.04298404        0.04302263        0.00461787        0.04872363        0.00538222
     111         -0.734053        2.000000        0.38047582        0.03031059        0.03158806        0.03157960        0.04586703        0.04584815        0.00518992        0.04301513        0.00481017
     112         -0.733294        2.000000        0.32596059        0.02658092        0.02483793        0.02485082        0.04098247        0.04096765        0.00505701        0.03897950        0.00511057
     113         -0.733294        2.000000        0.32596060        0.02308922        0.02660246        0.02657798        0.03895475        0.03898287        0.00513775        0.04299201        0.00502984
     114         -0.733294        2.000000        0.32596061        0.02659953        0.02482927        0.02484086        0.04099242        0.04097910        0.00505662        0.03895812        0.00511097
     115         -0.733215        2.000000        0.43096978        0.02047022        0.02419520        0.02503777        0.06126784        0.06261742        0.00185505        0.05530139        0.00139125
     116         -0.733215        2.000000        0.43096978        0.02599857        0.02227359        0.02143102        0.05818993        0.05684035        0.00139125        0.06415638        0.00185505
     117         -0.732536        2.000000        0.38514979        0.02429063        0.02548597        0.02547798        0.04248698        0.04248285        0.00641560        0.04186972        0.00592405
     118         -0.732536        2.000000        0.38514982        0.02666261        0.02428795        0.02430402        0.04186834        0.04187664        0.00568153        0.04309459        0.00665812
     119         -0.732536        2.000000        0.38514985        0.02430134        0.02548066        0.02547258        0.04248425        0.04248008        0.00641234        0.04187526        0.00592730
     120         -0.732431        2.000000        0.40130858        0.02525441        0.02496253        0.02496513        0.05187585        0.05190324        0.00416360        0.05494134        0.00433094
     121         -0.732431        2.000000        0.40130857        0.02466836        0.02525899        0.02525472        0.05498943        0.05494458        0.00441630        0.04878641        0.00407824
     122         -0.732431        2.000000        0.40130856        0.02525930        0.02496055        0.02496221        0.05185514        0.05187260        0.00416192        0.05499267        0.00433263
     123         -0.732401        2.000000        0.31391382        0.02483893        0.02304969        0.02306177        0.05058168        0.05056979        0.00267384        0.04882071        0.00254141
     124         -0.732401        2.000000        0.31391385        0.02125596        0.02485917        0.02483526        0.04880079        0.04882433        0.00247430        0.05234708        0.00274095
     125         -0.732401        2.000000        0.31391388        0.02485550        0.02304153        0.02305336        0.05058973        0.05057808        0.00267474        0.04880441        0.00254051
     126         -0.730750        2.000000        0.32971542        0.02444875        0.02444875        0.02444875        0.02558447        0.02558447        0.01072477        0.02558447        0.01072477
     127         -0.730748        2.000000        0.27137911        0.01842837        0.03277545        0.03553638        0.02690154        0.02665352        0.01324132        0.02819036        0.01124771
     128         -0.730748        2.000000        0.27137911        0.03939843        0.02505135        0.02229041        0.02759540        0.02784342        0.01124771        0.02630659        0.01324132
     129         -0.730733        2.000000        0.39074628        0.03413331        0.02620846        0.02626590        0.04590222        0.04591653        0.00462149        0.04787592        0.00567421
     130         -0.730733        2.000000        0.39074627        0.01825425        0.03423080        0.03412261        0.04790020        0.04787325        0.00620849        0.04392122        0.00408721
     131         -0.730733        2.000000        0.39074626        0.03422010        0.02616840        0.02621916        0.04589225        0.04590489        0.00461357        0.04789753        0.00568213
     132         -0.730395        2.000000        0.33517902        0.02300600        0.02951111        0.02948323        0.03327039        0.03326229        0.01209099        0.03138078        0.01052030
     133         -0.730395        2.000000        0.33517903        0.03597036        0.02297154        0.02305843        0.03137077        0.03139601        0.00973258        0.03514669        0.01287870
     134         -0.730395        2.000000        0.33517903        0.02302398        0.02951769        0.02945868        0.03327231        0.03325516        0.01209336        0.03138600        0.01051793
     135         -0.729574        2.000000        0.42541669        0.04490465        0.03433492        0.03441170        0.04955336        0.04955525        0.00860395        0.04981402        0.01053481
     136         -0.729574        2.000000        0.42541669        0.02390426        0.04494398        0.04480302        0.04981499        0.04981151        0.01149005        0.04929612        0.00764871
     137         -0.729574        2.000000        0.42541669        0.04484236        0.03437236        0.03443654        0.04955428        0.04955586        0.00861414        0.04981248        0.01052462
     138         -0.728359        2.000000        0.39185708        0.03292265        0.03446961        0.03445990        0.05622230        0.05615746        0.00265596        0.04590130        0.00245196
     139         -0.728359        2.000000        0.39185708        0.03601821        0.03290675        0.03292720        0.04579522        0.04593165        0.00234874        0.06655419        0.00275918
     140         -0.728359        2.000000        0.39185709        0.03291130        0.03447580        0.03446507        0.05626354        0.05619195        0.00265718        0.04582557        0.00245075
     141         -0.728057        2.000000        0.38192254        0.02561860        0.02937711        0.03026691        0.05468794        0.05302725        0.00390603        0.06170273        0.00314218
     142         -0.728057        2.000000        0.38192254        0.03122315        0.02746464        0.02657484        0.05825734        0.05991803        0.00314218        0.05124255        0.00390603
     143         -0.727482        2.000000        0.24668750        0.02736345        0.02736345        0.02736345        0.04048902        0.04048902        0.00325945        0.04048902        0.00325945
     144         -0.727380        2.000000        0.31520041        0.02476151        0.02912662        0.02910250        0.04936414        0.04935088        0.00421575        0.04696381        0.00372437