# Projected DOS for atomic kind H at iteration step i = 0, E(Fermi) =    -0.451904 a.u.
#     MO Eigenvalue [a.u.]      Occupation                 s
       1         -0.763812        2.000000        0.01008700
       2         -0.762636        2.000000        0.01399804
       3         -0.762636        2.000000        0.01399804
       4         -0.762636        2.000000        0.01399804
       5         -0.760772        2.000000        0.01732519
       6         -0.760772        2.000000        0.01732519
       7         -0.760628        2.000000        0.01979660
       8         -0.760628        2.000000        0.01979660
       9         -0.760628        2.000000        0.01979660
      10         -0.758974        2.000000        0.01772694
      11         -0.758145        2.000000        0.02335138
      12         -0.758145        2.000000        0.02335138
      13         -0.758145        2.000000        0.02335138
      14         -0.757920        2.000000        0.02527114
      15         -0.757792        2.000000        0.02460298
      16         -0.757792        2.000000        0.02460298
      17         -0.757792        2.000000        0.02460298
      18         -0.755622        2.000000        0.02428791
      19         -0.755622        2.000000        0.02428791
      20         -0.755622        2.000000        0.02428791
      21         -0.754715        2.000000        0.03031693
      22         -0.754715        2.000000        0.03031693
      23         -0.754715        2.000000        0.03031693
      24         -0.754435        2.000000        0.02718011
      25         -0.754307        2.000000        0.03083173
      26         -0.754307        2.000000        0.03083173
      27         -0.754307        2.000000        0.03083173
      28         -0.754148        2.000000        0.02962660
      29         -0.754148        2.000000        0.02962660
      30         -0.751444        2.000000        0.03137709
      31         -0.751444        2.000000        0.03137709
      32         -0.751444        2.000000        0.03137709
      33         -0.751287        2.000000        0.02707641
      34         -0.751287        2.000000        0.02707641
      35         -0.750334        2.000000        0.04020337
      36         -0.750334        2.000000        0.04020337
      37         -0.750135        2.000000        0.03751333
      38         -0.750135        2.000000        0.03751333
      39         -0.750135        2.000000        0.03751333
      40         -0.750030        2.000000        0.03483975
      41         -0.750030        2.000000        0.03483975
      42         -0.750030        2.000000        0.03483975
      43         -0.749703        2.000000        0.02718934
      44         -0.749635        2.000000        0.03544356
      45         -0.749635        2.000000        0.03544356
      46         -0.749635        2.000000        0.03544356
      47         -0.747369        2.000000        0.03630635
      48         -0.746777        2.000000        0.03442905
      49         -0.746777        2.000000        0.03442905
      50         -0.746777        2.000000        0.03442905
      51         -0.745777        2.000000        0.05305271
      52         -0.745777        2.000000        0.05305271
      53         -0.745777        2.000000        0.05305271
      54         -0.745326        2.000000        0.03522912
      55         -0.745326        2.000000        0.03522912
      56         -0.745326        2.000000        0.03522912
      57         -0.744914        2.000000        0.04152293
      58         -0.744914        2.000000        0.04152293
      59         -0.744914        2.000000        0.04152293
      60         -0.744701        2.000000        0.04735477
      61         -0.744684        2.000000        0.04228219
      62         -0.744684        2.000000        0.04228219
      63         -0.744684        2.000000        0.04228219
      64         -0.744429        2.000000        0.03989130
      65         -0.744429        2.000000        0.03989130
      66         -0.743557        2.000000        0.03223941
      67         -0.743557        2.000000        0.03223941
      68         -0.743557        2.000000        0.03223941
      69         -0.743413        2.000000        0.02968565
      70         -0.741493        2.000000        0.03331234
      71         -0.741493        2.000000        0.03331234
      72         -0.741493        2.000000        0.03331234
      73         -0.741219        2.000000        0.04275349
      74         -0.741219        2.000000        0.04275349
      75         -0.741219        2.000000        0.04275349
      76         -0.740684        2.000000        0.03507311
      77         -0.739459        2.000000        0.05079454
      78         -0.739459        2.000000        0.05079454
      79         -0.739459        2.000000        0.05079454
      80         -0.739314        2.000000        0.04954385
      81         -0.739314        2.000000        0.04954385
      82         -0.739283        2.000000        0.04785963
      83         -0.739283        2.000000        0.04785963
      84         -0.739283        2.000000        0.04785963
      85         -0.738784        2.000000        0.03632336
      86         -0.738784        2.000000        0.03632336
      87         -0.738365        2.000000        0.05295495
      88         -0.738365        2.000000        0.05295495
      89         -0.738365        2.000000        0.05295495
      90         -0.738125        2.000000        0.04307011
      91         -0.738125        2.000000        0.04307011
      92         -0.738125        2.000000        0.04307011
      93         -0.737938        2.000000        0.04184629
      94         -0.737238        2.000000        0.05443294
      95         -0.737238        2.000000        0.05443294
      96         -0.736667        2.000000        0.03288624
      97         -0.736667        2.000000        0.03288624
      98         -0.736667        2.000000        0.03288624
      99         -0.736472        2.000000        0.03644112
     100         -0.736472        2.000000        0.03644112
     101         -0.735870        2.000000        0.01816202
     102         -0.735870        2.000000        0.01816202
     103         -0.735870        2.000000        0.01816202
     104         -0.735500        2.000000        0.02837937
     105         -0.735292        2.000000        0.02281615
     106         -0.734443        2.000000        0.04773345
     107         -0.734443        2.000000        0.04773346
     108         -0.734443        2.000000        0.04773346
     109         -0.734053        2.000000        0.04879184
     110         -0.734053        2.000000        0.04879184
     111         -0.734053        2.000000        0.04879184
     112         -0.733294        2.000000        0.05237510
     113         -0.733294        2.000000        0.05237510
     114         -0.733294        2.000000        0.05237510
     115         -0.733215        2.000000        0.02647900
     116         -0.733215        2.000000        0.02647900
     117         -0.732536        2.000000        0.04208821
     118         -0.732536        2.000000        0.04208820
     119         -0.732536        2.000000        0.04208820
     120         -0.732431        2.000000        0.03489771
     121         -0.732431        2.000000        0.03489772
     122         -0.732431        2.000000        0.03489772
     123         -0.732401        2.000000        0.04556348
     124         -0.732401        2.000000        0.04556348
     125         -0.732401        2.000000        0.04556347
     126         -0.730750        2.000000        0.04932305
     127         -0.730748        2.000000        0.05966279
     128         -0.730748        2.000000        0.05966279
     129         -0.730733        2.000000        0.04386213
     130         -0.730733        2.000000        0.04386213
     131         -0.730733        2.000000        0.04386213
     132         -0.730395        2.000000        0.04822868
     133         -0.730395        2.000000        0.04822868
     134         -0.730395        2.000000        0.04822868
     135         -0.729574        2.000000        0.04186975
     136         -0.729574        2.000000        0.04186975
     137         -0.729574        2.000000        0.04186975
     138         -0.728359        2.000000        0.04059479
     139         -0.728359        2.000000        0.04059479
     140         -0.728359        2.000000        0.04059479
     141         -0.728057        2.000000        0.03911723
     142         -0.728057        2.000000        0.03911723
     143         -0.727482        2.000000        0.07249112
     144         -0.727380        2.000000        0.05881275
     145         -0.727380        2.000000        0.05881275
     146         -0.727380        2.000000        0.05881275
     147         -0.727293        2.000000        0.04120205
     148         -0.727293        2.000000        0.04120206
     149         -0.727293        2.000000        0.04120206
     150         -0.727112        2.000000        0.02628890
     151         -0.726979        2.000000        0.04551957
     152         -0.726979        2.000000        0.04551958
     153         -0.726979        2.000000        0.04551959
     154         -0.726868        2.000000        0.04962833
     155         -0.726868        2.000000        0.04962834
     156         -0.726868        2.000000        0.04962835
     157         -0.725145        2.000000        0.03146101
     158         -0.725114        2.000000        0.05541998
     159         -0.725114        2.000000        0.05541998
     160         -0.724197        2.000000        0.05464113
     161         -0.724197        2.000000        0.05464113
     162         -0.724197        2.000000        0.05464113
     163         -0.723877        2.000000        0.04037074
     164         -0.722785        2.000000        0.04755371
     165         -0.722785        2.000000        0.04755371
     166         -0.722785        2.000000        0.04755371
     167         -0.722726        2.000000        0.05356063
     168         -0.722726        2.000000        0.05356063
     169         -0.722726        2.000000        0.05356063
     170         -0.722069        2.000000        0.06598173
     171         -0.722069        2.000000        0.06598173
     172         -0.722069        2.000000        0.06598173
     173         -0.721895        2.000000        0.05681598
     174         -0.721895        2.000000        0.05681598
     175         -0.720310        2.000000        0.06426875
     176         -0.720310        2.000000        0.06426875
     177         -0.720310        2.000000        0.06426875
     178         -0.720077        2.000000        0.04157608
     179         -0.720077        2.000000        0.04157608
     180         -0.720077        2.000000        0.04157608
     181         -0.719733        2.000000        0.05882199
     182         -0.719733        2.000000        0.05882199
     183         -0.719607        2.000000        0.06402533
     184         -0.718907        2.000000        0.05369972
     185         -0.718907        2.000000        0.05369972
     186         -0.718907        2.000000        0.05369972
     187         -0.718719        2.000000        0.05939323
     188         -0.718719        2.000000        0.05939323
     189         -0.718719        2.000000        0.05939323
     190         -0.716845        2.000000        0.04690776
     191         -0.716845        2.000000        0.04690776
     192         -0.716321        2.000000        0.04428579
     193         -0.716043        2.000000        0.05531292
     194         -0.716043        2.000000        0.05531292
     195         -0.716043        2.000000        0.05531292
     196         -0.715216        2.000000        0.04860644
     197         -0.715216        2.000000        0.04860644
     198         -0.715216        2.000000        0.04860644
     199         -0.714370        2.000000        0.06094085
     200         -0.714370        2.000000        0.06094085
     201         -0.714370        2.000000        0.06094085
     202         -0.714097        2.000000        0.06342255
     203         -0.714097        2.000000        0.06342255
     204         -0.712522        2.000000        0.07502208
     205         -0.712522        2.000000        0.07502208
     206         -0.712447        2.000000        0.06286704
     207         -0.712447        2.000000        0.06286704
     208         -0.712447        2.000000        0.06286704
     209         -0.712396        2.000000        0.08126765
     210         -0.712253        2.000000        0.06840515
     211         -0.712253        2.000000        0.06840515
     212         -0.712253        2.000000        0.06840515
     213         -0.709846        2.000000        0.05446924
     214         -0.709846        2.000000        0.05446924
     215         -0.709846        2.000000        0.05446924
     216         -0.708450        2.000000        0.07675199
     217         -0.708450        2.000000        0.07675199
     218         -0.708450        2.000000        0.07675199
     219         -0.707581        2.000000        0.08788669
     220         -0.707581        2.000000        0.08788669
     221         -0.707581        2.000000        0.08788669
     222         -0.707065        2.000000        0.07777532
     223         -0.705244        2.000000        0.08982397
     224         -0.704911        2.000000        0.06362466
     225         -0.704911        2.000000        0.06362466
     226         -0.704911        2.000000        0.06362466
     227         -0.704756        2.000000        0.05129182
     228         -0.704756        2.000000        0.05129182
     229         -0.704756        2.000000        0.05129182
     230         -0.703910        2.000000        0.05369176
     231         -0.703664        2.000000        0.07424087
     232         -0.703664        2.000000        0.07424087
     233         -0.703482        2.000000        0.06648126
     234         -0.703482        2.000000        0.06648126
     235         -0.703482        2.000000        0.06648126
     236         -0.702535        2.000000        0.08089418
     237         -0.702535        2.000000        0.08089418
     238         -0.702535        2.000000        0.08089418
     239         -0.698936        2.000000        0.08192902
     240         -0.698936        2.000000        0.08192902
     241         -0.696777        2.000000        0.13687452
     242         -0.696777        2.000000        0.13687452
     243         -0.696777        2.000000        0.13687452
     244         -0.696364        2.000000        0.13438255
     245         -0.696364        2.000000        0.13438255
     246         -0.696364        2.000000        0.13438255
     247         -0.689706        2.000000        0.10285234
     248         -0.689706        2.000000        0.10285234
     249         -0.689706        2.000000        0.10285234
     250         -0.689454        2.000000        0.10312697
     251         -0.689454        2.000000        0.10312697
     252         -0.689454        2.000000        0.10312697
     253         -0.689116        2.000000        0.09676423
     254         -0.689116        2.000000        0.09676423
     255         -0.688563        2.000000        0.07850010
     256         -0.687287        2.000000        0.11844052
     257         -0.687287        2.000000        0.11844052
     258         -0.687287        2.000000        0.11844052
     259         -0.687287        2.000000        0.11302610
     260         -0.687287        2.000000        0.11302610
     261         -0.687287        2.000000        0.11302610
     262         -0.679931        2.000000        0.12106660
     263         -0.679931        2.000000        0.12106660
     264         -0.675329        2.000000        0.13763488
     265         -0.675329        2.000000        0.13763488
     266         -0.675329        2.000000        0.13763488
     267         -0.674181        2.000000        0.16229269
     268         -0.673463        2.000000        0.12134962
     269         -0.673463        2.000000        0.12134962
     270         -0.672116        2.000000        0.10424384
     271         -0.672116        2.000000        0.10424384
     272         -0.672116        2.000000        0.10424384
     273         -0.670580        2.000000        0.11642279
     274         -0.670521        2.000000        0.12103871
     275         -0.670521        2.000000        0.12103871
     276         -0.670521        2.000000        0.12103871
     277         -0.669614        2.000000        0.11802447
     278         -0.669614        2.000000        0.11802447
     279         -0.669614        2.000000        0.11802447
     280         -0.669432        2.000000        0.11936383
     281         -0.668464        2.000000        0.10512686
     282         -0.668464        2.000000        0.10512686
     283         -0.668464        2.000000        0.10512686
     284         -0.666738        2.000000        0.14758750
     285         -0.666738        2.000000        0.14758750
     286         -0.666738        2.000000        0.14758750
     287         -0.665724        2.000000        0.09273280
     288         -0.665724        2.000000        0.09273280
     289         -0.665724        2.000000        0.09273280
     290         -0.663319        2.000000        0.15930385
     291         -0.663319        2.000000        0.15930385
     292         -0.662552        2.000000        0.13017334
     293         -0.662552        2.000000        0.13017334
     294         -0.662552        2.000000        0.13017334
     295         -0.661040        2.000000        0.10450247
     296         -0.660249        2.000000        0.11252126
     297         -0.660249        2.000000        0.11252126
     298         -0.660249        2.000000        0.11252126
     299         -0.659515        2.000000        0.14979046
     300         -0.659515        2.000000        0.14979046
     301         -0.659033        2.000000        0.13090375
     302         -0.659033        2.000000        0.13090375
     303         -0.659033        2.000000        0.13090375
     304         -0.655443        2.000000        0.14716569
     305         -0.655443        2.000000        0.14716569
     306         -0.655443        2.000000        0.14716568
     307         -0.654977        2.000000        0.11967838
     308         -0.654977        2.000000        0.11967838
     309         -0.654977        2.000000        0.11967838
     310         -0.654873        2.000000        0.14323039
     311         -0.654873        2.000000        0.14323039
     312         -0.653981        2.000000        0.15367768
     313         -0.653981        2.000000        0.15367768
     314         -0.653981        2.000000        0.15367767
     315         -0.653469        2.000000        0.11919181
     316         -0.653469        2.000000        0.11919181
     317         -0.653288        2.000000        0.12982420
     318         -0.652386        2.000000        0.08028268
     319         -0.651972        2.000000        0.11318969
     320         -0.651972        2.000000        0.11318969
     321         -0.651972        2.000000        0.11318969
     322         -0.651025        2.000000        0.14027907
     323         -0.651025        2.000000        0.14027907
     324         -0.651025        2.000000        0.14027907
     325         -0.649714        2.000000        0.12894525
     326         -0.649714        2.000000        0.12894525
     327         -0.649714        2.000000        0.12894525
     328         -0.649465        2.000000        0.16418599
     329         -0.649465        2.000000        0.16418599
     330         -0.649465        2.000000        0.16418599
     331         -0.647686        2.000000        0.11950826
     332         -0.647686        2.000000        0.11950826
     333         -0.646605        2.000000        0.14000239
     334         -0.646605        2.000000        0.14000239
     335         -0.646605        2.000000        0.14000239
     336         -0.645746        2.000000        0.20488308
     337         -0.645713        2.000000        0.16890523
     338         -0.645615        2.000000        0.10979143
     339         -0.645615        2.000000        0.10979143
     340         -0.645615        2.000000        0.10979143
     341         -0.645215        2.000000        0.16287159
     342         -0.645215        2.000000        0.16287160
     343         -0.645215        2.000000        0.16287160
     344         -0.644596        2.000000        0.13324816
     345         -0.644596        2.000000        0.13324816
     346         -0.644596        2.000000        0.13324816
     347         -0.644119        2.000000        0.13698940
     348         -0.644119        2.000000        0.13698940
     349         -0.642043        2.000000        0.15552004
     350         -0.642043        2.000000        0.15552004
     351         -0.642043        2.000000        0.15552004
     352         -0.640041        2.000000        0.18193655
     353         -0.640041        2.000000        0.18193655
     354         -0.640041        2.000000        0.18193655
     355         -0.639336        2.000000        0.15444724
     356         -0.639336        2.000000        0.15444724
     357         -0.639336        2.000000        0.15444724
     358         -0.637965        2.000000        0.13009493
     359         -0.637965        2.000000        0.13009492
     360         -0.637965        2.000000        0.13009492
     361         -0.637437        2.000000        0.12651244
     362         -0.637437        2.000000        0.12651244
     363         -0.637437        2.000000        0.12651244
     364         -0.637037        2.000000        0.10976654
     365         -0.637037        2.000000        0.10976654
     366         -0.636769        2.000000        0.10392455
     367         -0.636769        2.000000        0.10392455
     368         -0.636769        2.000000        0.10392455
     369         -0.636688        2.000000        0.10063935
     370         -0.636490        2.000000        0.04789250
     371         -0.634763        2.000000        0.17202638
     372         -0.634763        2.000000        0.17202638
     373         -0.634319        2.000000        0.12640218
     374         -0.634319        2.000000        0.12640218
     375         -0.634319        2.000000        0.12640218
     376         -0.633214        2.000000        0.11890663
     377         -0.633214        2.000000        0.11890663
     378         -0.633214        2.000000        0.11890663
     379         -0.632865        2.000000        0.06657395
     380         -0.630969        2.000000        0.12231826
     381         -0.630969        2.000000        0.12231826
     382         -0.630632        2.000000        0.10239356
     383         -0.630632        2.000000        0.10239356
     384         -0.630632        2.000000        0.10239356
     385         -0.629582        2.000000        0.11595858
     386         -0.629582        2.000000        0.11595858
     387         -0.629582        2.000000        0.11595858
     388         -0.629261        2.000000        0.09850413
     389         -0.629261        2.000000        0.09850413
     390         -0.629261        2.000000        0.09850413
     391         -0.628023        2.000000        0.06254684
     392         -0.628023        2.000000        0.06254684
     393         -0.628023        2.000000        0.06254684
     394         -0.627791        2.000000        0.11411276
     395         -0.627211        2.000000        0.08180572
     396         -0.627211        2.000000        0.08180572
     397         -0.627211        2.000000        0.08180572
     398         -0.626944        2.000000        0.09161879
     399         -0.626944        2.000000        0.09161879
     400         -0.625129        2.000000        0.13105608
     401         -0.624188        2.000000        0.10029025
     402         -0.624188        2.000000        0.10029024
     403         -0.624188        2.000000        0.10029024
     404         -0.623052        2.000000        0.11025077
     405         -0.623052        2.000000        0.11025077
     406         -0.623052        2.000000        0.11025077
     407         -0.622632        2.000000        0.10124353
     408         -0.622632        2.000000        0.10124353
     409         -0.620729        2.000000        0.10760092
     410         -0.620729        2.000000        0.10760092
     411         -0.620729        2.000000        0.10760092
     412         -0.620297        2.000000        0.12301219
     413         -0.618999        2.000000        0.11277003
     414         -0.618999        2.000000        0.11277003
     415         -0.618999        2.000000        0.11277003
     416         -0.618600        2.000000        0.13231274
     417         -0.618600        2.000000        0.13231274
     418         -0.618397        2.000000        0.11242083
     419         -0.618397        2.000000        0.11242083
     420         -0.618397        2.000000        0.11242083
     421         -0.616502        2.000000        0.13958661
     422         -0.616502        2.000000        0.13958661
     423         -0.616502        2.000000        0.13958661
     424         -0.615180        2.000000        0.14460474
     425         -0.615180        2.000000        0.14460474
     426         -0.615180        2.000000        0.14460474
     427         -0.614047        2.000000        0.11925457
     428         -0.614047        2.000000        0.11925457
     429         -0.614047        2.000000        0.11925457
     430         -0.612696        2.000000        0.08379361
     431         -0.612696        2.000000        0.08379361
     432         -0.610065        2.000000        0.15925857
     433         -0.610065        2.000000        0.15925857
     434         -0.610065        2.000000        0.15925857
     435         -0.609415        2.000000        0.13879774
     436         -0.608067        2.000000        0.11911053
     437         -0.604580        2.000000        0.12365956
     438         -0.604580        2.000000        0.12365956
     439         -0.604580        2.000000        0.12365956
     440         -0.604473        2.000000        0.13348590
     441         -0.604473        2.000000        0.13348590
     442         -0.604473        2.000000        0.13348590
     443         -0.604036        2.000000        0.11269586
     444         -0.601843        2.000000        0.11324771
     445         -0.601843        2.000000        0.11324771
     446         -0.601843        2.000000        0.11324771
     447         -0.601788        2.000000        0.11985291
     448         -0.600652        2.000000        0.13201418
     449         -0.600652        2.000000        0.13201418
     450         -0.600652        2.000000        0.13201418
     451         -0.600610        2.000000        0.13951696
     452         -0.600610        2.000000        0.13951696
     453         -0.596597        2.000000        0.11795327
     454         -0.596597        2.000000        0.11795327
     455         -0.596597        2.000000        0.11795327
     456         -0.591649        2.000000        0.14618257
     457         -0.590543        2.000000        0.13425200
     458         -0.590543        2.000000        0.13425200
     459         -0.590129        2.000000        0.14117278
     460         -0.590129        2.000000        0.14117278
     461         -0.590129        2.000000        0.14117277
     462         -0.586959        2.000000        0.12310123
     463         -0.586959        2.000000        0.12310123
     464         -0.586959        2.000000        0.12310123
     465         -0.584335        2.000000        0.13040764
     466         -0.584335        2.000000        0.13040764
     467         -0.584335        2.000000        0.13040764
     468         -0.583326        2.000000        0.13919737
     469         -0.583326        2.000000        0.13919737
     470         -0.583326        2.000000        0.13919737
     471         -0.579930        2.000000        0.11868061
     472         -0.579930        2.000000        0.11868061
     473         -0.573864        2.000000        0.13908486
     474         -0.573864        2.000000        0.13908486
     475         -0.573864        2.000000        0.13908486
     476         -0.568196        2.000000        0.14502670
     477         -0.568196        2.000000        0.14502670
     478         -0.568196        2.000000        0.14502670
     479         -0.567807        2.000000        0.24685903
     480         -0.567558        2.000000        0.25695333
     481         -0.567558        2.000000        0.25695333
     482         -0.566811        2.000000        0.14085717
     483         -0.566811        2.000000        0.14085717
     484         -0.566811        2.000000        0.14085717
     485         -0.563855        2.000000        0.50163118
     486         -0.563855        2.000000        0.50163118
     487         -0.563855        2.000000        0.50163118
     488         -0.563768        2.000000        0.49841411
     489         -0.563768        2.000000        0.49841411